 Gaussian 16, Revision A.03,
 Gaussian 16:  ES64L-G16RevA.03 25-Dec-2016

 ----------------------------
 # opt freq 6-31+g(d,p) m062x
 ----------------------------

 --
 TS
 --
 Symbolic Z-matrix:
 Charge = -1 Multiplicity = 2

 SCF Done:  E(UM062X) =  -583.463775055     A.U. after   18 cycles
 SCF Done:  E(UM062X) =  -583.479173209     A.U. after   17 cycles
 SCF Done:  E(UM062X) =  -583.488619917     A.U. after   17 cycles
 SCF Done:  E(UM062X) =  -583.490719415     A.U. after   15 cycles
 SCF Done:  E(UM062X) =  -583.493115914     A.U. after   16 cycles
 SCF Done:  E(UM062X) =  -583.493978159     A.U. after   16 cycles
 SCF Done:  E(UM062X) =  -583.495135952     A.U. after   16 cycles
 SCF Done:  E(UM062X) =  -583.496296905     A.U. after   15 cycles
 SCF Done:  E(UM062X) =  -583.497744242     A.U. after   16 cycles
 SCF Done:  E(UM062X) =  -583.498339428     A.U. after   14 cycles
 SCF Done:  E(UM062X) =  -583.499940717     A.U. after   11 cycles
 SCF Done:  E(UM062X) =  -583.499943128     A.U. after   11 cycles
 SCF Done:  E(UM062X) =  -583.499944434     A.U. after   10 cycles
 SCF Done:  E(UM062X) =  -583.499946359     A.U. after   11 cycles
 SCF Done:  E(UM062X) =  -583.499947371     A.U. after   12 cycles
 SCF Done:  E(UM062X) =  -583.499947778     A.U. after   11 cycles
 SCF Done:  E(UM062X) =  -583.499948059     A.U. after   10 cycles
 SCF Done:  E(UM062X) =  -583.499948385     A.U. after    9 cycles
 SCF Done:  E(UM062X) =  -583.499948565     A.U. after    9 cycles
 Optimization completed.
    -- Stationary point found.
 Normal termination of Gaussian 16 at Sat May 27 16:04:34 2023.

 ----------------------------------------------------------------------
 #N Geom=AllCheck Guess=TCheck SCRF=Check GenChk UM062X/6-31+G(d,p) Fre
 q
 ----------------------------------------------------------------------

 Structure from the checkpoint file:  "/scratch/gongke2021/PC/Gau-36482.chk"
 --
 TS
 --
 Charge = -1 Multiplicity = 2

                         Standard orientation:
 ---------------------------------------------------------------------
 Center     Atomic      Atomic             Coordinates (Angstroms)
 Number     Number       Type             X           Y           Z
 ---------------------------------------------------------------------
      1          7           0       -0.859757    0.208348   -0.068357
      2          7           0       -0.052081   -0.929801   -0.123441
      3          6           0       -0.974983   -1.935496   -0.037656
      4          6           0       -2.241841   -1.396814    0.072793
      5          7           0       -2.206016   -0.046569    0.058635
      6          1           0       -0.658355   -2.968438   -0.054490
      7          1           0       -3.190079   -1.908372    0.162502
      8          1           0        1.337052   -0.704419    1.252894
      9          6           0       -0.360975    1.480833   -0.132370
     10          8           0        0.987736    1.539287   -0.347518
     11          8           0       -1.015254    2.496599    0.021295
     12          8           0        2.589732   -0.848981   -1.217423
     13          1           0        1.670206   -1.155334   -1.099992
     14          1           0        1.336683    0.723899   -0.752636
     15          8           0        2.165591   -0.350564    1.642029
     16          1           0        2.065700    0.603251    1.522959
     17          1           0        2.908129   -0.796299   -0.302759
 ---------------------------------------------------------------------

 SCF Done:  E(UM062X) =  -583.499948565     A.U. after    1 cycles

 The electronic state is 2-A.
 Alpha  occ. eigenvalues --  -19.54165 -19.51648 -19.51221 -19.47250 -14.71603
 Alpha  occ. eigenvalues --  -14.64428 -14.63176 -10.55471 -10.43492 -10.43159
 Alpha  occ. eigenvalues --   -1.09373  -1.02972  -1.00466  -0.99297  -0.98542
 Alpha  occ. eigenvalues --   -0.83170  -0.79830  -0.62234  -0.55537  -0.54033
 Alpha  occ. eigenvalues --   -0.49398  -0.46975  -0.46017  -0.43373  -0.40163
 Alpha  occ. eigenvalues --   -0.38982  -0.35901  -0.35737  -0.34904  -0.34690
 Alpha  occ. eigenvalues --   -0.32279  -0.27304  -0.26321  -0.26217  -0.25416
 Alpha  occ. eigenvalues --   -0.22430  -0.22132  -0.21002  -0.19892  -0.01963
 Alpha virt. eigenvalues --    0.12803   0.13478   0.15128   0.16720   0.17926
 Alpha virt. eigenvalues --    0.18180   0.18643   0.19713   0.20868   0.21343
 Alpha virt. eigenvalues --    0.23320   0.23554   0.24625   0.25123   0.26661

  Beta  occ. eigenvalues --  -19.54143 -19.51631 -19.51215 -19.47020 -14.71498
  Beta  occ. eigenvalues --  -14.63982 -14.62654 -10.55406 -10.43412 -10.43199
  Beta  occ. eigenvalues --   -1.08940  -1.02238  -1.00397  -0.99259  -0.98039
  Beta  occ. eigenvalues --   -0.81631  -0.79058  -0.61448  -0.55100  -0.53752
  Beta  occ. eigenvalues --   -0.48681  -0.46858  -0.45721  -0.41889  -0.39713
  Beta  occ. eigenvalues --   -0.38624  -0.35480  -0.35164  -0.34567  -0.34022
  Beta  occ. eigenvalues --   -0.31788  -0.27193  -0.26166  -0.25235  -0.24146
  Beta  occ. eigenvalues --   -0.21510  -0.20211  -0.17742  -0.17511
  Beta virt. eigenvalues --    0.12189   0.13375   0.13546   0.14802   0.16093
  Beta virt. eigenvalues --    0.17463   0.17961   0.18644   0.19125   0.19486
  Beta virt. eigenvalues --    0.21360   0.22413   0.24242   0.24771   0.25739

 Mulliken charges and spin densities:
               1          2
     1  N    0.032765  -0.002672
     2  N   -0.777637   0.277723
     3  C   -0.196721   0.159527
     4  C   -0.173863  -0.046609
     5  N   -0.234435   0.392487
     6  H    0.130148  -0.007458
     7  H    0.125569   0.000724
     8  H    0.476653   0.004142
     9  C    0.671357   0.100021
    10  O   -0.587704   0.004032
    11  O   -0.525132   0.110403
    12  O   -0.771215   0.001653
    13  H    0.439477   0.002711
    14  H    0.408725   0.001666
    15  O   -0.844525   0.000273
    16  H    0.410471   0.001198
    17  H    0.416067   0.000179
 Sum of Mulliken charges =  -1.00000   1.00000

 Dipole moment (field-independent basis, Debye):
    X=              0.6595    Y=             -3.6344    Z=              0.2162  Tot=              3.7001
 Quadrupole moment (field-independent basis, Debye-Ang):
   XX=            -85.8622   YY=            -78.0426   ZZ=            -71.1406
   XY=             10.0887   XZ=              2.1172   YZ=              0.5685

  Exact polarizability: 103.788   4.174 116.632  -2.245   0.841  63.324
 Approx polarizability: 116.119  -2.312 131.438  -3.404   1.824  73.170

                      1                      2                      3
                      A                      A                      A
 Frequencies --     47.6630                77.1305                88.7839
 Red. masses --      7.9150                 6.7640                 8.7109
 Frc consts  --      0.0106                 0.0237                 0.0405
 IR Inten    --      3.2705                 0.9207                 6.9763

                      4                      5                      6
                      A                      A                      A
 Frequencies --    127.2957               134.2206               159.6455
 Red. masses --      6.8381                 6.8796                 8.6255
 Frc consts  --      0.0653                 0.0730                 0.1295
 IR Inten    --      2.4107                 0.9418                 0.4926

                      7                      8                      9
                      A                      A                      A
 Frequencies --    170.7826               208.1570               265.8495
 Red. masses --      6.2058                 6.6538                 6.6945
 Frc consts  --      0.1066                 0.1699                 0.2788
 IR Inten    --     10.6762                 6.4207                 4.4882

                     10                     11                     12
                      A                      A                      A
 Frequencies --    376.6867               395.0835               437.9946
 Red. masses --      1.0406                 1.0825                 1.1162
 Frc consts  --      0.0870                 0.0996                 0.1262
 IR Inten    --      6.8259               116.8339                84.4006

                     13                     14                     15
                      A                      A                      A
 Frequencies --    459.8709               461.9401               546.2838
 Red. masses --      6.8560                 5.2554                 1.1280
 Frc consts  --      0.8543                 0.6607                 0.1983
 IR Inten    --      7.9364                11.1256               134.3551

                     16                     17                     18
                      A                      A                      A
 Frequencies --    557.0198               607.9655               656.1114
 Red. masses --      5.7195                 4.6172                 3.3360
 Frc consts  --      1.0456                 1.0055                 0.8461
 IR Inten    --     12.0959                 1.0971                70.8457

                     19                     20                     21
                      A                      A                      A
 Frequencies --    696.5541               716.4306               722.9523
 Red. masses --      1.3714                 1.2610                 1.2739
 Frc consts  --      0.3920                 0.3813                 0.3923
 IR Inten    --     68.9615                71.0464               227.1650

                     22                     23                     24
                      A                      A                      A
 Frequencies --    758.0502               840.5164               847.3875
 Red. masses --      3.3097                 1.2490                 1.0668
 Frc consts  --      1.1206                 0.5199                 0.4513
 IR Inten    --     72.0781                 8.2696                57.5003

                     25                     26                     27
                      A                      A                      A
 Frequencies --    879.4104               955.4521              1110.2536
 Red. masses --      5.8887                 7.5306                 1.7324
 Frc consts  --      2.6832                 4.0504                 1.2582
 IR Inten    --     21.9552                20.4013                55.9095

                     28                     29                     30
                      A                      A                      A
 Frequencies --   1114.4607              1134.8346              1217.6661
 Red. masses --      1.7662                 2.6633                 9.7766
 Frc consts  --      1.2925                 2.0209                 8.5407
 IR Inten    --     63.1142                96.7418                 6.1592

                     31                     32                     33
                      A                      A                      A
 Frequencies --   1262.2497              1285.5039              1410.6006
 Red. masses --      1.4582                 6.4127                 2.4803
 Frc consts  --      1.3689                 6.2437                 2.9078
 IR Inten    --    181.7551                37.2445                65.2743

                     34                     35                     36
                      A                      A                      A
 Frequencies --   1468.5660              1525.9245              1681.8028
 Red. masses --     11.0185                 4.7956                 1.0849
 Frc consts  --     14.0010                 6.5790                 1.8079
 IR Inten    --    265.3518                 7.4661               202.9770

                     37                     38                     39
                      A                      A                      A
 Frequencies --   1688.6082              1822.8479              3267.9758
 Red. masses --      1.0776                10.2943                 1.0878
 Frc consts  --      1.8104                20.1534                 6.8450
 IR Inten    --    118.1889               843.8892                 5.8673

                     40                     41                     42
                      A                      A                      A
 Frequencies --   3292.8182              3544.9752              3650.0812
 Red. masses --      1.1029                 1.0624                 1.0589
 Frc consts  --      7.0456                 7.8659                 8.3125
 IR Inten    --     22.4915               555.5510               314.9309

                     43                     44                     45
                      A                      A                      A
 Frequencies --   3725.3949              3825.5132              3885.4664
 Red. masses --      1.0654                 1.0692                 1.0666
 Frc consts  --      8.7120                 9.2192                 9.4874
 IR Inten    --    440.2871               195.4805                49.3268

 - Thermochemistry -
 -------------------
 Temperature   298.150 Kelvin.  Pressure   1.00000 Atm.
 Atom     1 has atomic number  7 and mass  14.00307

 Molecular mass:   149.04366 amu.
 Principal axes and moments of inertia in atomic units:
                           1         2         3
     Eigenvalues --  1247.091041683.136492393.04490
           X            0.99923   0.03919   0.00205
           Y           -0.03920   0.99922   0.00416
           Z           -0.00188  -0.00424   0.99999
 This molecule is an asymmetric top.
 Rotational symmetry number  1.
 Warning -- assumption of classical behavior for rotation
           may cause significant error
 Rotational temperatures (Kelvin)      0.06945     0.05146     0.03619
 Rotational constants (GHZ):           1.44716     1.07225     0.75416
 Zero-point vibrational energy     323654.3 (Joules/Mol)
                                   77.35525 (Kcal/Mol)
 Warning -- explicit consideration of  17 degrees of freedom as
           vibrations may cause significant error
 Vibrational temperatures:     68.58   110.97   127.74   183.15   193.11
          (Kelvin)            229.69   245.72   299.49   382.50   541.97
                              568.44   630.18   661.65   664.63   785.98
                              801.43   874.73   944.00  1002.19  1030.78
                             1040.17  1090.67  1209.32  1219.20  1265.28
                             1374.68  1597.41  1603.46  1632.77  1751.95
                             1816.10  1849.55  2029.54  2112.94  2195.47
                             2419.74  2429.53  2622.67  4701.89  4737.63
                             5100.43  5251.65  5360.01  5504.06  5590.32

 Zero-point correction=                           0.123273 (Hartree/Particle)
 Thermal correction to Energy=                    0.134962
 Thermal correction to Enthalpy=                  0.135906
 Thermal correction to Gibbs Free Energy=         0.084728
 Sum of electronic and zero-point Energies=           -583.376675
 Sum of electronic and thermal Energies=              -583.364987
 Sum of electronic and thermal Enthalpies=            -583.364042
 Sum of electronic and thermal Free Energies=         -583.415220

                     E (Thermal)             CV                S
                      KCal/Mol        Cal/Mol-Kelvin    Cal/Mol-Kelvin
 Total                   84.690             41.228            107.713
 Electronic               0.000              0.000              1.377
 Translational            0.889              2.981             40.908
 Rotational               0.889              2.981             29.997
 Vibrational             82.913             35.267             35.431
 Vibration     1          0.595              1.978              4.912
 Vibration     2          0.599              1.964              3.963
 Vibration     3          0.602              1.957              3.687
 Vibration     4          0.611              1.926              2.987
 Vibration     5          0.613              1.919              2.885
 Vibration     6          0.622              1.892              2.554
 Vibration     7          0.626              1.878              2.427
 Vibration     8          0.641              1.828              2.060
 Vibration     9          0.672              1.736              1.623
 Vibration    10          0.747              1.520              1.052
 Vibration    11          0.762              1.481              0.981
 Vibration    12          0.798              1.387              0.833
 Vibration    13          0.818              1.339              0.766
 Vibration    14          0.820              1.334              0.760
 Vibration    15          0.901              1.148              0.552
 Vibration    16          0.913              1.124              0.530
 Vibration    17          0.967              1.015              0.436

                           ! Non-Optimized Parameters !
 Normal termination of Gaussian 16 at Sat May 27 16:05:40 2023.
