 Gaussian 16, Revision A.03,
 Gaussian 16:  ES64L-G16RevA.03 25-Dec-2016

 ----------------------------
 # opt freq 6-31+g(d,p) m062x
 ----------------------------

 ----------
 "Sketch 2"
 ----------
 Symbolic Z-matrix:
 Charge =  0 Multiplicity = 1

 SCF Done:  E(RM062X) =  -430.294404589     A.U. after   17 cycles
 SCF Done:  E(RM062X) =  -430.421184237     A.U. after   15 cycles
 SCF Done:  E(RM062X) =  -430.619968818     A.U. after   15 cycles
 SCF Done:  E(RM062X) =  -430.636086124     A.U. after   14 cycles
 SCF Done:  E(RM062X) =  -430.655435232     A.U. after   15 cycles
 SCF Done:  E(RM062X) =  -430.632498424     A.U. after   16 cycles
 SCF Done:  E(RM062X) =  -430.656808890     A.U. after   13 cycles
 SCF Done:  E(RM062X) =  -430.662571960     A.U. after   14 cycles
 SCF Done:  E(RM062X) =  -430.662175993     A.U. after   14 cycles
 SCF Done:  E(RM062X) =  -430.659918883     A.U. after   13 cycles
 SCF Done:  E(RM062X) =  -430.663995876     A.U. after   12 cycles
 SCF Done:  E(RM062X) =  -430.664071970     A.U. after   12 cycles
 SCF Done:  E(RM062X) =  -430.664127163     A.U. after   12 cycles
 SCF Done:  E(RM062X) =  -430.664152368     A.U. after   11 cycles
 SCF Done:  E(RM062X) =  -430.664158459     A.U. after   11 cycles
 SCF Done:  E(RM062X) =  -430.664162744     A.U. after   10 cycles
 SCF Done:  E(RM062X) =  -430.664163619     A.U. after    9 cycles
 SCF Done:  E(RM062X) =  -430.664163673     A.U. after    9 cycles
 SCF Done:  E(RM062X) =  -430.664163760     A.U. after    8 cycles
 Optimization completed.
    -- Stationary point found.
 Normal termination of Gaussian 16 at Fri Mar 10 14:47:00 2023.

 ----------------------------------------------------------------------
 #N Geom=AllCheck Guess=TCheck SCRF=Check GenChk RM062X/6-31+G(d,p) Fre
 q
 ----------------------------------------------------------------------

 Structure from the checkpoint file:  "/scratch/gongke2021/1-H-Tz-RC/Gau-29538.chk"
 ----------
 "Sketch 2"
 ----------
 Charge =  0 Multiplicity = 1

                         Standard orientation:
 ---------------------------------------------------------------------
 Center     Atomic      Atomic             Coordinates (Angstroms)
 Number     Number       Type             X           Y           Z
 ---------------------------------------------------------------------
      1          7           0        0.360442   -0.418215    0.000428
      2          7           0        0.845389    0.826245    0.000206
      3          6           0        2.195314    0.828858   -0.000218
      4          6           0        2.519009   -0.507773   -0.000239
      5          7           0        1.367003   -1.231424    0.000148
      6          1           0        2.782598    1.732543   -0.000395
      7          1           0        3.486586   -0.983273   -0.000518
      8          1           0        0.190011    1.597182    0.000301
      9          6           0       -2.378643    0.057115   -0.000093
     10          8           0       -2.031408    1.173065   -0.000011
     11          8           0       -2.778981   -1.029552   -0.000185
 ---------------------------------------------------------------------

 SCF Done:  E(RM062X) =  -430.664163760     A.U. after    1 cycles

 The electronic state is 1-A.
 Alpha  occ. eigenvalues --  -19.73201 -19.73058 -14.86734 -14.83862 -14.79660
 Alpha  occ. eigenvalues --  -10.75375 -10.61236 -10.58458  -1.29338  -1.24337
 Alpha  occ. eigenvalues --   -1.23442  -1.02310  -0.91910  -0.74389  -0.72014
 Alpha  occ. eigenvalues --   -0.66281  -0.65766  -0.60734  -0.60318  -0.60123
 Alpha  occ. eigenvalues --   -0.56051  -0.54090  -0.52567  -0.44488  -0.44471
 Alpha  occ. eigenvalues --   -0.42104  -0.37625  -0.35216  -0.33231
 Alpha virt. eigenvalues --   -0.00114   0.01691   0.02132   0.03182   0.04556
 Alpha virt. eigenvalues --    0.04799   0.05639   0.06070   0.07146   0.07466
 Alpha virt. eigenvalues --    0.08353   0.08573   0.08814   0.09429   0.11929

 Mulliken charges:
               1
     1  N   -0.062459
     2  N   -0.226574
     3  C   -0.139652
     4  C   -0.163919
     5  N   -0.179344
     6  H    0.196109
     7  H    0.178932
     8  H    0.368830
     9  C    0.776348
    10  O   -0.415063
    11  O   -0.333206
 Sum of Mulliken charges =  -0.00000

 Dipole moment (field-independent basis, Debye):
    X=              1.7090    Y=              4.0044    Z=             -0.0007  Tot=              4.3539
 Quadrupole moment (field-independent basis, Debye-Ang):
   XX=            -37.8403   YY=            -46.6946   ZZ=            -45.6610
   XY=              2.1544   XZ=             -0.0019   YZ=              0.0008

  Exact polarizability:  65.263   4.340  67.287  -0.006  -0.000  35.548
 Approx polarizability:  76.333   7.684  97.195  -0.008   0.000  43.825

                      1                      2                      3
                      A                      A                      A
 Frequencies --     39.8123                64.6398                75.3813
 Red. masses --      6.9279                 6.3140                 9.1800
 Frc consts  --      0.0065                 0.0155                 0.0307
 IR Inten    --      6.9351                 1.0954                 8.6735

                      4                      5                      6
                      A                      A                      A
 Frequencies --    125.8457               170.4105               635.0864
 Red. masses --      7.0146                13.4967                 3.6270
 Frc consts  --      0.0655                 0.2309                 0.8619
 IR Inten    --      4.1842                 0.7046                13.1301

                      7                      8                      9
                      A                      A                      A
 Frequencies --    653.4245               671.3714               697.9031
 Red. masses --     12.9369                10.9045                 2.0044
 Frc consts  --      3.2544                 2.8959                 0.5752
 IR Inten    --     87.1967                21.6510                59.3748

                     10                     11                     12
                      A                      A                      A
 Frequencies --    747.1890               800.2553               894.6030
 Red. masses --      2.1453                 1.2102                 1.3267
 Frc consts  --      0.7057                 0.4566                 0.6256
 IR Inten    --     34.2162                57.3323                 5.0097

                     13                     14                     15
                      A                      A                      A
 Frequencies --    963.8022               988.4525              1087.7263
 Red. masses --      5.5924                 2.8451                 2.2868
 Frc consts  --      3.0607                 1.6378                 1.5941
 IR Inten    --      3.5174                 2.5852                34.0944

                     16                     17                     18
                      A                      A                      A
 Frequencies --   1130.5511              1172.2019              1218.7077
 Red. masses --      1.3474                 2.2184                 4.4574
 Frc consts  --      1.0146                 1.7960                 3.9006
 IR Inten    --     47.5023                13.8373                14.8775

                     19                     20                     21
                      A                      A                      A
 Frequencies --   1363.2139              1406.8460              1407.8808
 Red. masses --      8.5525                15.1371                 2.1719
 Frc consts  --      9.3642                17.6516                 2.5364
 IR Inten    --     23.3658                 2.7430                 6.9167

                     22                     23                     24
                      A                      A                      A
 Frequencies --   1497.5376              1578.4225              2458.0946
 Red. masses --      3.8935                 3.2009                12.8077
 Frc consts  --      5.1445                 4.6986                45.5950
 IR Inten    --      0.4269                15.3403               701.5677

                     25                     26                     27
                      A                      A                      A
 Frequencies --   3317.1559              3337.5425              3661.0419
 Red. masses --      1.0934                 1.1081                 1.0844
 Frc consts  --      7.0884                 7.2725                 8.5633
 IR Inten    --      1.7405                 0.9641               161.0587

 - Thermochemistry -
 -------------------
 Temperature   298.150 Kelvin.  Pressure   1.00000 Atm.
 Atom     1 has atomic number  7 and mass  14.00307

 Molecular mass:   113.02253 amu.
 Principal axes and moments of inertia in atomic units:
                           1         2         3
     Eigenvalues --   321.746231603.899791925.64598
           X            0.99999   0.00507  -0.00001
           Y           -0.00507   0.99999   0.00000
           Z            0.00001  -0.00000   1.00000
 This molecule is an asymmetric top.
 Rotational symmetry number  1.
 Rotational temperatures (Kelvin)      0.26920     0.05400     0.04498
 Rotational constants (GHZ):           5.60921     1.12522     0.93721
 Zero-point vibrational energy     192390.0 (Joules/Mol)
                                   45.98232 (Kcal/Mol)
 Warning -- explicit consideration of   5 degrees of freedom as
           vibrations may cause significant error
 Vibrational temperatures:     57.28    93.00   108.46   181.06   245.18
          (Kelvin)            913.75   940.13   965.95  1004.13  1075.04
                             1151.39  1287.13  1386.70  1422.16  1565.00
                             1626.61  1686.54  1753.45  1961.36  2024.14
                             2025.63  2154.62  2271.00  3536.65  4772.65
                             4801.98  5267.42

 Zero-point correction=                           0.073277 (Hartree/Particle)
 Thermal correction to Energy=                    0.080785
 Thermal correction to Enthalpy=                  0.081729
 Thermal correction to Gibbs Free Energy=         0.038968
 Sum of electronic and zero-point Energies=           -430.590886
 Sum of electronic and thermal Energies=              -430.583379
 Sum of electronic and thermal Enthalpies=            -430.582435
 Sum of electronic and thermal Free Energies=         -430.625196

                     E (Thermal)             CV                S
                      KCal/Mol        Cal/Mol-Kelvin    Cal/Mol-Kelvin
 Total                   50.693             23.414             89.998
 Electronic               0.000              0.000              0.000
 Translational            0.889              2.981             40.083
 Rotational               0.889              2.981             28.387
 Vibrational             48.916             17.452             21.528
 Vibration     1          0.594              1.981              5.268
 Vibration     2          0.597              1.971              4.310
 Vibration     3          0.599              1.965              4.008
 Vibration     4          0.611              1.927              3.009
 Vibration     5          0.626              1.879              2.431

 Optimization completed.
    -- Stationary point found.
 Normal termination of Gaussian 16 at Fri Mar 10 14:47:59 2023.
