 Gaussian 16, Revision A.03,
 Gaussian 16:  ES64L-G16RevA.03 25-Dec-2016

 ----------------------------
 # opt freq 6-31+g(d,p) m062x
 ----------------------------

 -----------
 "1-H-Tz-TS"
 -----------
 Symbolic Z-matrix:
 Charge =  0 Multiplicity = 1

 SCF Done:  E(RM062X) =  -507.040156431     A.U. after   14 cycles
 SCF Done:  E(RM062X) =  -507.036502524     A.U. after   14 cycles
 SCF Done:  E(RM062X) =  -507.052880107     A.U. after   12 cycles
 SCF Done:  E(RM062X) =  -507.058284102     A.U. after   13 cycles
 SCF Done:  E(RM062X) =  -507.059268519     A.U. after   12 cycles
 SCF Done:  E(RM062X) =  -507.060936266     A.U. after   12 cycles
 SCF Done:  E(RM062X) =  -507.061973854     A.U. after   13 cycles
 SCF Done:  E(RM062X) =  -507.062328998     A.U. after   11 cycles
 SCF Done:  E(RM062X) =  -507.062800833     A.U. after   12 cycles
 SCF Done:  E(RM062X) =  -507.063675427     A.U. after   13 cycles
 SCF Done:  E(RM062X) =  -507.065215926     A.U. after    9 cycles
 SCF Done:  E(RM062X) =  -507.065246011     A.U. after   11 cycles
 SCF Done:  E(RM062X) =  -507.065250459     A.U. after   10 cycles
 SCF Done:  E(RM062X) =  -507.065254117     A.U. after    9 cycles
 SCF Done:  E(RM062X) =  -507.065256963     A.U. after    9 cycles
 SCF Done:  E(RM062X) =  -507.065257690     A.U. after   10 cycles
 SCF Done:  E(RM062X) =  -507.065258226     A.U. after   10 cycles
 SCF Done:  E(RM062X) =  -507.065258698     A.U. after   10 cycles
 SCF Done:  E(RM062X) =  -507.065258860     A.U. after    9 cycles
 Optimization completed.
    -- Stationary point found.
 Normal termination of Gaussian 16 at Thu May 25 04:31:22 2023.

 ----------------------------------------------------------------------
 #N Geom=AllCheck Guess=TCheck SCRF=Check GenChk RM062X/6-31+G(d,p) Fre
 q
 ----------------------------------------------------------------------

 Structure from the checkpoint file:  "/scratch/gongke2021/PC/Gau-29522.chk"
 -----------
 "1-H-Tz-TS"
 -----------
 Charge =  0 Multiplicity = 1

                         Standard orientation:
 ---------------------------------------------------------------------
 Center     Atomic      Atomic             Coordinates (Angstroms)
 Number     Number       Type             X           Y           Z
 ---------------------------------------------------------------------
      1          7           0       -0.504323   -0.267880    0.004738
      2          7           0       -0.206858    1.029336    0.085985
      3          6           0       -1.385247    1.630290    0.056539
      4          6           0       -2.383191    0.637851   -0.044070
      5          7           0       -1.796413   -0.545865   -0.072957
      6          1           0       -1.469138    2.705408    0.106398
      7          1           0       -3.456873    0.730521   -0.095429
      8          1           0        1.736336    2.043198    0.118673
      9          6           0        0.487500   -1.336775    0.013348
     10          8           0        1.731799   -0.926542    0.008504
     11          8           0        0.126028   -2.472140    0.031737
     12          8           0        2.548943    1.587256   -0.139335
     13          1           0        3.258686    1.867379    0.447494
     14          1           0        1.915614    0.047574   -0.063641
 ---------------------------------------------------------------------

 SCF Done:  E(RM062X) =  -507.065258860     A.U. after    1 cycles

 The electronic state is 1-A.
 Alpha  occ. eigenvalues --  -19.69566 -19.68924 -19.64905 -14.90791 -14.84248
 Alpha  occ. eigenvalues --  -14.83116 -10.73854 -10.61606 -10.60810  -1.28165
 Alpha  occ. eigenvalues --   -1.23429  -1.17767  -1.16308  -1.03389  -0.96830
 Alpha  occ. eigenvalues --   -0.78162  -0.74850  -0.72112  -0.67295  -0.64855
 Alpha  occ. eigenvalues --   -0.60885  -0.57881  -0.55894  -0.53948  -0.53195
 Alpha  occ. eigenvalues --   -0.51628  -0.47929  -0.44242  -0.42986  -0.40617
 Alpha  occ. eigenvalues --   -0.40216  -0.38457  -0.38216  -0.35764
 Alpha virt. eigenvalues --   -0.02352  -0.00173   0.02337   0.02971   0.04362
 Alpha virt. eigenvalues --    0.04918   0.05577   0.05827   0.07262   0.07998
 Alpha virt. eigenvalues --    0.09704   0.09861   0.10222   0.10631   0.11306

 Mulliken charges:
               1
     1  N   -0.267405
     2  N   -0.166723
     3  C   -0.148388
     4  C   -0.133795
     5  N   -0.036596
     6  H    0.184005
     7  H    0.189914
     8  H    0.423725
     9  C    0.735002
    10  O   -0.499274
    11  O   -0.386239
    12  O   -0.779812
    13  H    0.399764
    14  H    0.485823
 Sum of Mulliken charges =  -0.00000

 Dipole moment (field-independent basis, Debye):
    X=             -0.2022    Y=              6.6327    Z=              1.3118  Tot=              6.7642
 Quadrupole moment (field-independent basis, Debye-Ang):
   XX=            -43.4875   YY=            -54.6155   ZZ=            -52.4588
   XY=              0.6912   XZ=              4.3020   YZ=              3.0677

  Exact polarizability:  80.659  -3.308  81.685   1.342   0.877  40.265
 Approx polarizability:  93.803  -0.874 102.083   1.814   1.511  50.764

                      1                      2                      3
                      A                      A                      A
 Frequencies --     34.7385                88.6366               140.3556
 Red. masses --      5.9794                 7.5298                 2.6281
 Frc consts  --      0.0043                 0.0349                 0.0305
 IR Inten    --      3.0498                 3.4887                11.9399

                      4                      5                      6
                      A                      A                      A
 Frequencies --    150.7233               164.7152               215.5837
 Red. masses --      4.9904                 5.2767                 1.5022
 Frc consts  --      0.0668                 0.0843                 0.0411
 IR Inten    --      1.3805                11.4385               136.8829

                      7                      8                      9
                      A                      A                      A
 Frequencies --    260.2534               331.4667               436.3728
 Red. masses --      3.2065                 1.3729                 2.8139
 Frc consts  --      0.1280                 0.0889                 0.3157
 IR Inten    --      9.5919               168.9121                38.3812

                     10                     11                     12
                      A                      A                      A
 Frequencies --    502.1390               571.4890               670.9542
 Red. masses --      2.0523                 3.9279                12.4369
 Frc consts  --      0.3049                 0.7558                 3.2987
 IR Inten    --     18.3418                52.8101                 8.7941

                     13                     14                     15
                      A                      A                      A
 Frequencies --    677.8774               737.9862               778.8243
 Red. masses --      3.6577                 6.3369                 8.9407
 Frc consts  --      0.9903                 2.0334                 3.1952
 IR Inten    --      0.7720                81.0180                86.2229

                     16                     17                     18
                      A                      A                      A
 Frequencies --    865.3443               871.1541               920.2283
 Red. masses --      1.1828                 1.1439                 1.3881
 Frc consts  --      0.5219                 0.5115                 0.6926
 IR Inten    --     33.4232               124.6527                 0.4936

                     19                     20                     21
                      A                      A                      A
 Frequencies --    981.0643              1011.5155              1094.7004
 Red. masses --      7.3088                 3.3423                 1.8932
 Frc consts  --      4.1447                 2.0149                 1.3367
 IR Inten    --     19.3715                36.8027                17.5951

                     22                     23                     24
                      A                      A                      A
 Frequencies --   1208.4756              1247.8962              1306.2906
 Red. masses --      1.3946                 1.3690                 4.7842
 Frc consts  --      1.1999                 1.2560                 4.8100
 IR Inten    --      5.2401               136.7143               164.9630

                     25                     26                     27
                      A                      A                      A
 Frequencies --   1340.1672              1368.1369              1405.5595
 Red. masses --      6.7337                 7.5489                 4.5780
 Frc consts  --      7.1256                 8.3252                 5.3287
 IR Inten    --    362.6295                 9.1012               427.9309

                     28                     29                     30
                      A                      A                      A
 Frequencies --   1481.0546              1576.6663              1582.2065
 Red. masses --      4.6176                 4.0627                 1.1823
 Frc consts  --      5.9677                 5.9504                 1.7439
 IR Inten    --     20.4629                24.4830               123.4807

                     31                     32                     33
                      A                      A                      A
 Frequencies --   1957.5018              3271.1860              3303.5599
 Red. masses --     11.6305                 1.0772                 1.0949
 Frc consts  --     26.2575                 6.7917                 7.0405
 IR Inten    --    472.1341              1233.0857                 0.0295

                     34                     35                     36
                      A                      A                      A
 Frequencies --   3320.6262              3837.6062              3977.8134
 Red. masses --      1.1048                 1.0460                 1.0819
 Frc consts  --      7.1778                 9.0765                10.0858
 IR Inten    --      0.0487                73.5027               200.6947

 - Thermochemistry -
 -------------------
 Temperature   298.150 Kelvin.  Pressure   1.00000 Atm.
 Atom     1 has atomic number  7 and mass  14.00307

 Molecular mass:   131.03309 amu.
 Principal axes and moments of inertia in atomic units:
                           1         2         3
     Eigenvalues --   878.160401171.637242044.13722
           X            0.99917   0.04030   0.00529
           Y           -0.04033   0.99917   0.00543
           Z           -0.00507  -0.00564   0.99997
 This molecule is an asymmetric top.
 Rotational symmetry number  1.
 Warning -- assumption of classical behavior for rotation
           may cause significant error
 Rotational temperatures (Kelvin)      0.09863     0.07393     0.04237
 Rotational constants (GHZ):           2.05514     1.54036     0.88289
 Zero-point vibrational energy     261329.4 (Joules/Mol)
                                   62.45923 (Kcal/Mol)
 Warning -- explicit consideration of  11 degrees of freedom as
           vibrations may cause significant error
 Vibrational temperatures:     49.98   127.53   201.94   216.86   236.99
          (Kelvin)            310.18   374.45   476.91   627.84   722.47
                              822.25   965.35   975.31  1061.80  1120.55
                             1245.04  1253.40  1324.00  1411.53  1455.35
                             1575.03  1738.73  1795.44  1879.46  1928.20
                             1968.44  2022.29  2130.91  2268.47  2276.44
                             2816.41  4706.51  4753.09  4777.64  5521.46
                             5723.19

 Zero-point correction=                           0.099535 (Hartree/Particle)
 Thermal correction to Energy=                    0.108759
 Thermal correction to Enthalpy=                  0.109703
 Thermal correction to Gibbs Free Energy=         0.064185
 Sum of electronic and zero-point Energies=           -506.965724
 Sum of electronic and thermal Energies=              -506.956500
 Sum of electronic and thermal Enthalpies=            -506.955556
 Sum of electronic and thermal Free Energies=         -507.001074

                     E (Thermal)             CV                S
                      KCal/Mol        Cal/Mol-Kelvin    Cal/Mol-Kelvin
 Total                   68.247             31.398             95.800
 Electronic               0.000              0.000              0.000
 Translational            0.889              2.981             40.524
 Rotational               0.889              2.981             29.132
 Vibrational             66.470             25.436             26.144
 Vibration     1          0.594              1.983              5.539
 Vibration     2          0.601              1.957              3.690
 Vibration     3          0.615              1.913              2.799
 Vibration     4          0.618              1.902              2.663
 Vibration     5          0.623              1.886              2.495
 Vibration     6          0.645              1.817              1.996
 Vibration     7          0.668              1.745              1.660
 Vibration     8          0.714              1.613              1.253
 Vibration     9          0.797              1.391              0.838
 Vibration    10          0.857              1.245              0.653
 Vibration    11          0.928              1.093              0.501

                           ! Non-Optimized Parameters !
 Normal termination of Gaussian 16 at Thu May 25 04:32:15 2023.
