 Gaussian 16, Revision A.03,
 Gaussian 16:  ES64L-G16RevA.03 25-Dec-2016

 ----------------------------
 # opt freq 6-31+g(d,p) m062x
 ----------------------------

 ----------
 "Sketch 2"
 ----------
 Symbolic Z-matrix:
 Charge =  0 Multiplicity = 1

 SCF Done:  E(RM062X) =  -430.628789096     A.U. after   14 cycles
 SCF Done:  E(RM062X) =  -430.647568684     A.U. after   13 cycles
 SCF Done:  E(RM062X) =  -430.652493466     A.U. after   13 cycles
 SCF Done:  E(RM062X) =  -430.654708733     A.U. after   12 cycles
 SCF Done:  E(RM062X) =  -430.654961530     A.U. after   12 cycles
 SCF Done:  E(RM062X) =  -430.654685545     A.U. after   12 cycles
 SCF Done:  E(RM062X) =  -430.655013597     A.U. after   12 cycles
 SCF Done:  E(RM062X) =  -430.655030234     A.U. after   12 cycles
 SCF Done:  E(RM062X) =  -430.655045335     A.U. after   11 cycles
 Optimization completed.
    -- Stationary point found.
 Normal termination of Gaussian 16 at Fri Mar 10 14:49:59 2023.

 ----------------------------------------------------------------------
 #N Geom=AllCheck Guess=TCheck SCRF=Check GenChk RM062X/6-31+G(d,p) Fre
 q
 ----------------------------------------------------------------------

 Structure from the checkpoint file:  "/scratch/gongke2021/1-H-Tz-PC/Gau-3604.chk"
 ----------
 "Sketch 2"
 ----------
 Charge =  0 Multiplicity = 1

                         Standard orientation:
 ---------------------------------------------------------------------
 Center     Atomic      Atomic             Coordinates (Angstroms)
 Number     Number       Type             X           Y           Z
 ---------------------------------------------------------------------
      1          7           0        0.053918   -0.075897   -0.000112
      2          7           0        0.703339    1.089269    0.000045
      3          6           0        1.977165    0.740932   -0.000140
      4          6           0        2.045941   -0.672600   -0.000065
      5          7           0        0.816634   -1.158101    0.000397
      6          1           0        2.761605    1.481964   -0.000308
      7          1           0        2.903790   -1.327100   -0.000102
      8          1           0       -1.226417    1.765772   -0.000041
      9          6           0       -1.388588   -0.127213   -0.000062
     10          8           0       -1.924041    1.086454    0.000180
     11          8           0       -1.983874   -1.155735   -0.000212
 ---------------------------------------------------------------------

 SCF Done:  E(RM062X) =  -430.655045335     A.U. after    1 cycles

 The electronic state is 1-A.
 Alpha  occ. eigenvalues --  -19.72168 -19.66645 -14.91610 -14.84852 -14.84022
 Alpha  occ. eigenvalues --  -10.75237 -10.62207 -10.61593  -1.29810  -1.24757
 Alpha  occ. eigenvalues --   -1.18778  -1.04283  -0.97937  -0.79204  -0.75583
 Alpha  occ. eigenvalues --   -0.72880  -0.67340  -0.62113  -0.58469  -0.57183
 Alpha  occ. eigenvalues --   -0.54750  -0.54382  -0.50903  -0.44099  -0.42630
 Alpha  occ. eigenvalues --   -0.41145  -0.39792  -0.39220  -0.36543
 Alpha virt. eigenvalues --   -0.03338   0.00261   0.02308   0.02712   0.04085
 Alpha virt. eigenvalues --    0.04517   0.05409   0.06072   0.07322   0.07441
 Alpha virt. eigenvalues --    0.09080   0.09952   0.10515   0.10584   0.13166

 Mulliken charges:
               1
     1  N   -0.268606
     2  N   -0.117197
     3  C   -0.163092
     4  C   -0.119301
     5  N   -0.008965
     6  H    0.194057
     7  H    0.193156
     8  H    0.413266
     9  C    0.716491
    10  O   -0.450814
    11  O   -0.388995
 Sum of Mulliken charges =  -0.00000

 Dipole moment (field-independent basis, Debye):
    X=              4.3494    Y=              2.6998    Z=             -0.0008  Tot=              5.1192
 Quadrupole moment (field-independent basis, Debye-Ang):
   XX=            -43.4611   YY=            -47.0487   ZZ=            -45.3168
   XY=             -3.0476   XZ=             -0.0011   YZ=             -0.0006

  Exact polarizability:  79.065   3.022  62.960  -0.002  -0.001  34.004
 Approx polarizability:  92.549   5.914  86.242  -0.003  -0.001  43.240

                      1                      2                      3
                      A                      A                      A
 Frequencies --    104.3006               153.0085               256.2602
 Red. masses --      7.8673                 6.8144                 6.7398
 Frc consts  --      0.0504                 0.0940                 0.2608
 IR Inten    --      2.0323                 0.3875                 6.5713

                      4                      5                      6
                      A                      A                      A
 Frequencies --    458.1827               560.0262               585.3997
 Red. masses --      8.2828                 7.4837                 1.1123
 Frc consts  --      1.0245                 1.3829                 0.2246
 IR Inten    --      3.7690                10.9070               129.1326

                      7                      8                      9
                      A                      A                      A
 Frequencies --    668.2635               675.7628               749.6675
 Red. masses --     12.6629                 3.5865                 9.7416
 Frc consts  --      3.3318                 0.9650                 3.2256
 IR Inten    --      9.7132                 0.0020                10.6316

                     10                     11                     12
                      A                      A                      A
 Frequencies --    751.1486               871.1356               925.6272
 Red. masses --      8.5577                 1.1833                 1.3929
 Frc consts  --      2.8448                 0.5291                 0.7031
 IR Inten    --     67.6104                47.3180                 0.1694

                     13                     14                     15
                      A                      A                      A
 Frequencies --    980.8022              1002.2442              1083.3949
 Red. masses --      7.5193                 3.8540                 1.7810
 Frc consts  --      4.2618                 2.2809                 1.2316
 IR Inten    --     22.6619                46.2787                19.6682

                     16                     17                     18
                      A                      A                      A
 Frequencies --   1206.1018              1226.1891              1318.0023
 Red. masses --      1.6715                 2.0659                 4.4224
 Frc consts  --      1.4326                 1.8301                 4.5263
 IR Inten    --     27.9440                12.3137                81.1096

                     19                     20                     21
                      A                      A                      A
 Frequencies --   1362.0747              1371.7904              1425.6203
 Red. masses --      2.9366                 7.2618                 2.9672
 Frc consts  --      3.2099                 8.0514                 3.5531
 IR Inten    --    196.1426                12.9410               533.9575

                     22                     23                     24
                      A                      A                      A
 Frequencies --   1482.1406              1581.2569              1976.6631
 Red. masses --      5.0977                 6.0418                11.4737
 Frc consts  --      6.5979                 8.9007                26.4132
 IR Inten    --     90.8459                 0.8985               504.1407

                     25                     26                     27
                      A                      A                      A
 Frequencies --   3307.3504              3321.7112              3744.1422
 Red. masses --      1.0948                 1.1052                 1.0656
 Frc consts  --      7.0558                 7.1850                 8.8010
 IR Inten    --      0.3739                 0.1760               158.0158

 - Thermochemistry -
 -------------------
 Temperature   298.150 Kelvin.  Pressure   1.00000 Atm.
 Atom     1 has atomic number  7 and mass  14.00307

 Molecular mass:   113.02253 amu.
 Principal axes and moments of inertia in atomic units:
                           1         2         3
     Eigenvalues --   339.29338 986.679001325.97234
           X            0.99995  -0.01013  -0.00000
           Y            0.01013   0.99995  -0.00000
           Z            0.00000   0.00000   1.00000
 This molecule is an asymmetric top.
 Rotational symmetry number  1.
 Rotational temperatures (Kelvin)      0.25528     0.08778     0.06532
 Rotational constants (GHZ):           5.31912     1.82911     1.36107
 Zero-point vibrational energy     198270.7 (Joules/Mol)
                                   47.38783 (Kcal/Mol)
 Warning -- explicit consideration of   6 degrees of freedom as
           vibrations may cause significant error
 Vibrational temperatures:    150.07   220.15   368.70   659.22   805.75
          (Kelvin)            842.26   961.48   972.27  1078.60  1080.74
                             1253.37  1331.77  1411.16  1442.01  1558.76
                             1735.31  1764.21  1896.31  1959.72  1973.70
                             2051.15  2132.47  2275.08  2843.98  4758.54
                             4779.20  5386.99

 Zero-point correction=                           0.075517 (Hartree/Particle)
 Thermal correction to Energy=                    0.081524
 Thermal correction to Enthalpy=                  0.082469
 Thermal correction to Gibbs Free Energy=         0.044912
 Sum of electronic and zero-point Energies=           -430.579528
 Sum of electronic and thermal Energies=              -430.573521
 Sum of electronic and thermal Enthalpies=            -430.572577
 Sum of electronic and thermal Free Energies=         -430.610134

                     E (Thermal)             CV                S
                      KCal/Mol        Cal/Mol-Kelvin    Cal/Mol-Kelvin
 Total                   51.157             21.408             79.045
 Electronic               0.000              0.000              0.000
 Translational            0.889              2.981             40.083
 Rotational               0.889              2.981             27.587
 Vibrational             49.380             15.446             11.376
 Vibration     1          0.605              1.946              3.372
 Vibration     2          0.619              1.899              2.634
 Vibration     3          0.666              1.752              1.687
 Vibration     4          0.816              1.343              0.771
 Vibration     5          0.916              1.118              0.524
 Vibration     6          0.942              1.063              0.475

 Optimization completed.
    -- Stationary point found.
 Normal termination of Gaussian 16 at Fri Mar 10 14:51:04 2023.
