 Gaussian 16, Revision A.03,
 Gaussian 16:  ES64L-G16RevA.03 25-Dec-2016

 ----------------------------------------------------------------------
 # opt=(calcfc,ts,noeigentest) freq 6-31+g(d,p) integral=grid=ultrafine
  m062x
 ----------------------------------------------------------------------

 --
 TS
 --
 Symbolic Z-matrix:
 Charge = -1 Multiplicity = 2

 SCF Done:  E(UM062X) =  -583.403040031     A.U. after   20 cycles
 SCF Done:  E(UM062X) =  -583.428354477     A.U. after   18 cycles
 SCF Done:  E(UM062X) =  -583.449131875     A.U. after   17 cycles
 SCF Done:  E(UM062X) =  -583.462604748     A.U. after   17 cycles
 SCF Done:  E(UM062X) =  -583.471090939     A.U. after   16 cycles
 SCF Done:  E(UM062X) =  -583.474301233     A.U. after   16 cycles
 SCF Done:  E(UM062X) =  -583.476273370     A.U. after   16 cycles
 SCF Done:  E(UM062X) =  -583.476786722     A.U. after   15 cycles
 SCF Done:  E(UM062X) =  -583.475740664     A.U. after   16 cycles
 SCF Done:  E(UM062X) =  -583.475140757     A.U. after   16 cycles
 SCF Done:  E(UM062X) =  -583.480337021     A.U. after   13 cycles
 SCF Done:  E(UM062X) =  -583.480337019     A.U. after   13 cycles
 SCF Done:  E(UM062X) =  -583.480336833     A.U. after   11 cycles
 SCF Done:  E(UM062X) =  -583.479581567     A.U. after   16 cycles
 SCF Done:  E(UM062X) =  -583.479897531     A.U. after   16 cycles
 SCF Done:  E(UM062X) =  -583.480092364     A.U. after   16 cycles
 SCF Done:  E(UM062X) =  -583.480321618     A.U. after   15 cycles
 SCF Done:  E(UM062X) =  -583.480336645     A.U. after   14 cycles
 SCF Done:  E(UM062X) =  -583.480336846     A.U. after   11 cycles
 Optimization completed.
    -- Stationary point found.
 Normal termination of Gaussian 16 at Sat May 27 15:40:35 2023.

 ----------------------------------------------------------------------
 #N Geom=AllCheck Guess=TCheck SCRF=Check GenChk UM062X/6-31+G(d,p) Fre
 q
 ----------------------------------------------------------------------

 Structure from the checkpoint file:  "/scratch/gongke2021/TS/Gau-572.chk"
 --
 TS
 --
 Charge = -1 Multiplicity = 2

                         Standard orientation:
 ---------------------------------------------------------------------
 Center     Atomic      Atomic             Coordinates (Angstroms)
 Number     Number       Type             X           Y           Z
 ---------------------------------------------------------------------
      1          7           0        0.858172    0.185639   -0.127936
      2          7           0        0.040536   -0.905993    0.181849
      3          6           0        0.928058   -1.954724    0.326691
      4          6           0        2.198995   -1.447034    0.193174
      5          7           0        2.193369   -0.126057   -0.065719
      6          1           0        0.566619   -2.955267    0.502800
      7          1           0        3.141002   -1.970397    0.280982
      8          1           0       -0.877922   -1.071719   -0.413227
      9          6           0        0.424201    1.524165   -0.099875
     10          8           0       -0.862417    1.720926    0.075670
     11          8           0        1.222833    2.422010   -0.290746
     12          8           0       -2.715000    0.249478    0.762362
     13          1           0       -2.587131   -0.184555    1.611615
     14          1           0       -1.564368    0.999797    0.420425
     15          8           0       -2.221910   -1.390325   -0.918576
     16          1           0       -2.404018   -1.091426   -1.814140
     17          1           0       -2.614289   -0.552716   -0.055432
 ---------------------------------------------------------------------

 SCF Done:  E(UM062X) =  -583.480336846     A.U. after    1 cycles

 The electronic state is 2-A.
 Alpha  occ. eigenvalues --  -19.50471 -19.47955 -19.46550 -19.45839 -14.71827
 Alpha  occ. eigenvalues --  -14.67134 -14.64466 -10.55582 -10.44995 -10.44653
 Alpha  occ. eigenvalues --   -1.08610  -1.03383  -0.97773  -0.95645  -0.91224
 Alpha  occ. eigenvalues --   -0.85579  -0.80102  -0.62965  -0.56805  -0.54181
 Alpha  occ. eigenvalues --   -0.53375  -0.45401  -0.44591  -0.41624  -0.40016
 Alpha  occ. eigenvalues --   -0.38448  -0.36934  -0.35598  -0.34401  -0.30703
 Alpha  occ. eigenvalues --   -0.29555  -0.25722  -0.24504  -0.23439  -0.22790
 Alpha  occ. eigenvalues --   -0.21247  -0.20951  -0.20524  -0.19853  -0.04284
 Alpha virt. eigenvalues --    0.12559   0.13727   0.15442   0.16689   0.17643
 Alpha virt. eigenvalues --    0.18243   0.18337   0.19909   0.20301   0.21643
 Alpha virt. eigenvalues --    0.23006   0.23780   0.24815   0.25491   0.26500

  Beta  occ. eigenvalues --  -19.50446 -19.47948 -19.46431 -19.45820 -14.71531
  Beta  occ. eigenvalues --  -14.66710 -14.63918 -10.55567 -10.44836 -10.44734
  Beta  occ. eigenvalues --   -1.07957  -1.02653  -0.97592  -0.95534  -0.91135
  Beta  occ. eigenvalues --   -0.84044  -0.79178  -0.61975  -0.56248  -0.53621
  Beta  occ. eigenvalues --   -0.52894  -0.45177  -0.43211  -0.40662  -0.39409
  Beta  occ. eigenvalues --   -0.38251  -0.36524  -0.35218  -0.33161  -0.30542
  Beta  occ. eigenvalues --   -0.29291  -0.23991  -0.23489  -0.22125  -0.21159
  Beta  occ. eigenvalues --   -0.20542  -0.19717  -0.19267  -0.18263
  Beta virt. eigenvalues --    0.12018   0.12075   0.13616   0.15155   0.16073
  Beta virt. eigenvalues --    0.17768   0.18063   0.18357   0.19100   0.19391
  Beta virt. eigenvalues --    0.21579   0.22640   0.23761   0.25215   0.25726

 Mulliken charges and spin densities:
               1          2
     1  N   -0.052518   0.084895
     2  N   -0.440363   0.215856
     3  C   -0.253283   0.292548
     4  C   -0.126164  -0.138374
     5  N   -0.203955   0.437458
     6  H    0.152096  -0.012499
     7  H    0.133029   0.003771
     8  H    0.456881   0.008272
     9  C    0.721440   0.029933
    10  O   -0.618343   0.008045
    11  O   -0.519860   0.059479
    12  O   -1.000844   0.001939
    13  H    0.379116  -0.000270
    14  H    0.520026   0.000120
    15  O   -1.055334   0.009297
    16  H    0.364166  -0.000570
    17  H    0.543911   0.000102
 Sum of Mulliken charges =  -1.00000   1.00000

 Dipole moment (field-independent basis, Debye):
    X=              0.4644    Y=             -4.6807    Z=              1.0020  Tot=              4.8092
 Quadrupole moment (field-independent basis, Debye-Ang):
   XX=            -88.0664   YY=            -82.7204   ZZ=            -59.5857
   XY=             -8.9302   XZ=              1.3646   YZ=             -1.8355

  Exact polarizability: 106.164   0.262 109.052  -0.901  -3.794  63.948
 Approx polarizability: 117.396   7.116 120.158  -3.134  -6.241  76.617

 ******    1 imaginary frequencies (negative Signs) ******

                      1                      2                      3
                      A                      A                      A
 Frequencies --   -536.5981                40.9473                66.1204
 Red. masses --      1.5782                 6.5909                 5.7030
 Frc consts  --      0.2677                 0.0065                 0.0147
 IR Inten    --    439.5905                 0.7434                 4.3616

                      4                      5                      6
                      A                      A                      A
 Frequencies --    110.3376               129.4873               151.9081
 Red. masses --      5.4274                 7.4904                 5.4607
 Frc consts  --      0.0389                 0.0740                 0.0742
 IR Inten    --      1.9132                 1.2343                 2.8018

                      7                      8                      9
                      A                      A                      A
 Frequencies --    241.7166               319.4338               388.8049
 Red. masses --      5.6705                 6.2522                 2.2806
 Frc consts  --      0.1952                 0.3759                 0.2031
 IR Inten    --      2.5407               161.6645                22.2308

                     10                     11                     12
                      A                      A                      A
 Frequencies --    418.2059               430.5439               464.9749
 Red. masses --      1.7878                 2.0154                 2.2968
 Frc consts  --      0.1842                 0.2201                 0.2926
 IR Inten    --     89.4398               111.3529                79.2672

                     13                     14                     15
                      A                      A                      A
 Frequencies --    481.6528               539.6032               577.0893
 Red. masses --      2.1885                 1.8627                 7.1705
 Frc consts  --      0.2991                 0.3196                 1.4070
 IR Inten    --     13.0262               117.4064                41.9216

                     16                     17                     18
                      A                      A                      A
 Frequencies --    605.0603               665.0067               680.8322
 Red. masses --      4.2459                 1.2939                 4.3580
 Frc consts  --      0.9158                 0.3371                 1.1902
 IR Inten    --     31.2459                59.7726                46.2423

                     19                     20                     21
                      A                      A                      A
 Frequencies --    731.5801               746.7293               858.7435
 Red. masses --      1.6085                 2.8090                 3.9491
 Frc consts  --      0.5072                 0.9228                 1.7158
 IR Inten    --     13.7535                28.2988               256.7654

                     22                     23                     24
                      A                      A                      A
 Frequencies --    876.4543               910.7477               945.4820
 Red. masses --      1.2909                 2.7657                 4.6912
 Frc consts  --      0.5843                 1.3516                 2.4708
 IR Inten    --     63.2431               348.5124               174.3955

                     25                     26                     27
                      A                      A                      A
 Frequencies --   1097.1966              1112.5144              1199.0439
 Red. masses --      1.9960                 1.3313                 1.4284
 Frc consts  --      1.4157                 0.9708                 1.2099
 IR Inten    --     75.0748                14.8916               172.1749

                     28                     29                     30
                      A                      A                      A
 Frequencies --   1226.8961              1256.6275              1268.2420
 Red. masses --      5.3683                 2.4708                 1.7166
 Frc consts  --      4.7610                 2.2988                 1.6268
 IR Inten    --     19.7605                98.3299               144.7956

                     31                     32                     33
                      A                      A                      A
 Frequencies --   1278.8252              1361.1069              1403.4417
 Red. masses --      2.4312                 1.1268                 2.2933
 Frc consts  --      2.3425                 1.2300                 2.6614
 IR Inten    --    225.1779               575.9211               206.8419

                     34                     35                     36
                      A                      A                      A
 Frequencies --   1428.6126              1488.3697              1530.7705
 Red. masses --      4.0961                 1.2620                 2.9182
 Frc consts  --      4.9255                 1.6472                 4.0289
 IR Inten    --   1262.0289               116.7647               149.4410

                     37                     38                     39
                      A                      A                      A
 Frequencies --   1580.6695              1752.0914              1816.5552
 Red. masses --      1.2733                 1.0573                10.6567
 Frc consts  --      1.8743                 1.9122                20.7190
 IR Inten    --    288.5844               136.3346               640.2477

                     40                     41                     42
                      A                      A                      A
 Frequencies --   2165.0331              2292.0562              3273.2117
 Red. masses --      1.1510                 1.1068                 1.0925
 Frc consts  --      3.1788                 3.4258                 6.8966
 IR Inten    --   2958.8446              2621.8308                13.7829

                     43                     44                     45
                      A                      A                      A
 Frequencies --   3315.3747              3935.6172              3943.7391
 Red. masses --      1.0999                 1.0653                 1.0659
 Frc consts  --      7.1233                 9.7219                 9.7676
 IR Inten    --      4.2046                23.9200                16.7361

 - Thermochemistry -
 -------------------
 Temperature   298.150 Kelvin.  Pressure   1.00000 Atm.
 Atom     1 has atomic number  7 and mass  14.00307

 Molecular mass:   149.04366 amu.
 Principal axes and moments of inertia in atomic units:
                           1         2         3
     Eigenvalues --  1191.386721596.895242549.35792
           X            0.99949  -0.03176   0.00308
           Y            0.03176   0.99949   0.00188
           Z           -0.00313  -0.00179   0.99999
 This molecule is an asymmetric top.
 Rotational symmetry number  1.
 Warning -- assumption of classical behavior for rotation
           may cause significant error
 Rotational temperatures (Kelvin)      0.07270     0.05424     0.03397
 Rotational constants (GHZ):           1.51482     1.13016     0.70792
    1 imaginary frequencies ignored.
 Zero-point vibrational energy     305690.5 (Joules/Mol)
                                   73.06178 (Kcal/Mol)
 Warning -- explicit consideration of  15 degrees of freedom as
           vibrations may cause significant error
 Vibrational temperatures:     58.91    95.13   158.75   186.30   218.56
          (Kelvin)            347.78   459.59   559.40   601.70   619.46
                              669.00   692.99   776.37   830.30   870.55
                              956.80   979.57  1052.58  1074.38  1235.54
                             1261.02  1310.36  1360.34  1578.62  1600.66
                             1725.16  1765.23  1808.01  1824.72  1839.94
                             1958.33  2019.24  2055.45  2141.43  2202.44
                             2274.23  2520.87  2613.62  3115.00  3297.76
                             4709.42  4770.08  5662.48  5674.16

 Zero-point correction=                           0.116431 (Hartree/Particle)
 Thermal correction to Energy=                    0.126580
 Thermal correction to Enthalpy=                  0.127524
 Thermal correction to Gibbs Free Energy=         0.079264
 Sum of electronic and zero-point Energies=           -583.363905
 Sum of electronic and thermal Energies=              -583.353757
 Sum of electronic and thermal Enthalpies=            -583.352813
 Sum of electronic and thermal Free Energies=         -583.401073

                     E (Thermal)             CV                S
                      KCal/Mol        Cal/Mol-Kelvin    Cal/Mol-Kelvin
 Total                   79.430             36.623            101.571
 Electronic               0.000              0.000              1.377
 Translational            0.889              2.981             40.908
 Rotational               0.889              2.981             29.962
 Vibrational             77.652             30.661             29.324
 Vibration     1          0.594              1.981              5.213
 Vibration     2          0.598              1.970              4.266
 Vibration     3          0.606              1.941              3.263
 Vibration     4          0.612              1.924              2.954
 Vibration     5          0.619              1.901              2.648
 Vibration     6          0.658              1.776              1.790
 Vibration     7          0.705              1.636              1.313
 Vibration     8          0.757              1.494              1.005
 Vibration     9          0.781              1.431              0.898
 Vibration    10          0.792              1.404              0.857
 Vibration    11          0.822              1.328              0.752
 Vibration    12          0.838              1.291              0.706
 Vibration    13          0.895              1.162              0.566
 Vibration    14          0.934              1.081              0.491
 Vibration    15          0.964              1.021              0.441

                           ! Non-Optimized Parameters !
 Normal termination of Gaussian 16 at Sat May 27 15:41:40 2023.
