 Gaussian 16, Revision A.03,
 Gaussian 16:  ES64L-G16RevA.03 25-Dec-2016

 ----------------------------------------------------------------------
 # opt=(calcfc,ts,noeigentest,maxcycle=600) freq 6-31+g(d,p) integral=g
 rid=ultrafine m062x
 ----------------------------------------------------------------------

 ----
 test
 ----
 Symbolic Z-matrix:
 Charge =  0 Multiplicity = 1

 SCF Done:  E(RM062X) =  -583.462975863     A.U. after   14 cycles
 SCF Done:  E(RM062X) =  -583.462976382     A.U. after    9 cycles
 Optimization completed.
    -- Stationary point found.
 Normal termination of Gaussian 16 at Fri May 26 15:57:36 2023.

 ----------------------------------------------------------------------
 #N Geom=AllCheck Guess=TCheck SCRF=Check GenChk RM062X/6-31+G(d,p) Fre
 q
 ----------------------------------------------------------------------

 Structure from the checkpoint file:  "/scratch/gongke2021/TS-2/Gau-17024.chk"
 ----
 test
 ----
 Charge =  0 Multiplicity = 1

                         Standard orientation:
 ---------------------------------------------------------------------
 Center     Atomic      Atomic             Coordinates (Angstroms)
 Number     Number       Type             X           Y           Z
 ---------------------------------------------------------------------
      1          7           0        0.934636    0.331995   -0.064532
      2          7           0        0.602797   -0.954720   -0.082982
      3          6           0        1.747363   -1.614891    0.080303
      4          6           0        2.763795   -0.659040    0.192209
      5          7           0        2.213057    0.551165    0.103399
      6          1           0        1.777888   -2.693380    0.112753
      7          1           0        3.826560   -0.783265    0.328085
      8          1           0       -0.799503   -1.464624   -0.160061
      9          6           0       -0.114778    1.449318   -0.169455
     10          8           0        0.283430    2.546188    0.112618
     11          8           0       -1.208330    0.959045   -0.546557
     12          8           0       -3.174206   -0.020991    0.430297
     13          1           0       -2.434346    0.639176    0.094997
     14          1           0       -3.417156    0.162630    1.344237
     15          8           0       -1.782604   -1.882947   -0.144816
     16          1           0       -2.523445   -1.054881    0.198257
     17          1           0       -2.008038   -2.167419   -1.040136
 ---------------------------------------------------------------------

 SCF Done:  E(RM062X) =  -583.462976382     A.U. after    1 cycles

 The electronic state is 1-A.
 Alpha  occ. eigenvalues --  -19.71443 -19.69644 -19.62682 -19.61750 -14.88826
 Alpha  occ. eigenvalues --  -14.84041 -14.81878 -10.70198 -10.60989 -10.59609
 Alpha  occ. eigenvalues --   -1.25945  -1.21803  -1.19400  -1.17462  -1.11351
 Alpha  occ. eigenvalues --   -1.02363  -0.94231  -0.74959  -0.73739  -0.70052
 Alpha  occ. eigenvalues --   -0.69478  -0.66542  -0.63670  -0.58867  -0.57718
 Alpha  occ. eigenvalues --   -0.55370  -0.53976  -0.53612  -0.51238  -0.50556
 Alpha  occ. eigenvalues --   -0.48220  -0.44981  -0.43332  -0.39231  -0.38096
 Alpha  occ. eigenvalues --   -0.37280  -0.35384  -0.35038  -0.34131
 Alpha virt. eigenvalues --   -0.00388   0.00131   0.02574   0.03005   0.04288
 Alpha virt. eigenvalues --    0.05377   0.05506   0.06243   0.07474   0.08183
 Alpha virt. eigenvalues --    0.09425   0.10028   0.10396   0.11107   0.11806

 Mulliken charges:
               1
     1  N   -0.183967
     2  N   -0.234329
     3  C   -0.129481
     4  C   -0.165899
     5  N   -0.077959
     6  H    0.186894
     7  H    0.185016
     8  H    0.540309
     9  C    0.756858
    10  O   -0.433848
    11  O   -0.716568
    12  O   -0.852429
    13  H    0.540674
    14  H    0.423887
    15  O   -0.836205
    16  H    0.563949
    17  H    0.433099
 Sum of Mulliken charges =  -0.00000

 Dipole moment (field-independent basis, Debye):
    X=             -1.8334    Y=             -7.0789    Z=              0.8804  Tot=              7.3653
 Quadrupole moment (field-independent basis, Debye-Ang):
   XX=            -48.5403   YY=            -65.1201   ZZ=            -55.0939
   XY=             -4.0036   XZ=             -4.0128   YZ=              3.9414

  Exact polarizability:  97.097  -2.389  88.137   3.145   2.335  49.721
 Approx polarizability: 106.898   2.449 108.575   5.576   3.966  63.261

 ******    1 imaginary frequencies (negative Signs) ******

                      1                      2                      3
                      A                      A                      A
 Frequencies --   -417.8803                41.9200                73.6391
 Red. masses --      1.6721                 5.4544                 7.4790
 Frc consts  --      0.1720                 0.0056                 0.0239
 IR Inten    --    416.5015                 1.4517                 7.4658

                      4                      5                      6
                      A                      A                      A
 Frequencies --    100.8326               120.9482               166.6195
 Red. masses --      5.5027                 7.4071                 6.3198
 Frc consts  --      0.0330                 0.0638                 0.1034
 IR Inten    --      5.1873                 3.3233                 4.2398

                      7                      8                      9
                      A                      A                      A
 Frequencies --    244.7911               362.5407               380.6002
 Red. masses --      7.4962                 5.4280                 1.3452
 Frc consts  --      0.2647                 0.4203                 0.1148
 IR Inten    --      0.6642               107.5248                54.0927

                     10                     11                     12
                      A                      A                      A
 Frequencies --    400.9319               455.4559               503.2799
 Red. masses --      6.1602                 2.6577                 1.3253
 Frc consts  --      0.5834                 0.3248                 0.1978
 IR Inten    --     69.0813               130.2242               184.4530

                     13                     14                     15
                      A                      A                      A
 Frequencies --    572.5939               601.5809               678.5728
 Red. masses --      4.7793                 1.2769                 3.4812
 Frc consts  --      0.9232                 0.2723                 0.9444
 IR Inten    --     26.6940                25.4205                 2.0045

                     16                     17                     18
                      A                      A                      A
 Frequencies --    696.3793               733.2001               764.7109
 Red. masses --     10.0506                 1.1319                10.3793
 Frc consts  --      2.8717                 0.3585                 3.5761
 IR Inten    --     13.2082                29.6009               191.2731

                     19                     20                     21
                      A                      A                      A
 Frequencies --    792.6194               851.2149               870.1292
 Red. masses --      7.8430                 1.1934                 2.1711
 Frc consts  --      2.9031                 0.5095                 0.9685
 IR Inten    --     26.5995                47.0850               721.0548

                     22                     23                     24
                      A                      A                      A
 Frequencies --    911.0549               983.1588              1020.1729
 Red. masses --      1.3784                 6.7711                 1.0694
 Frc consts  --      0.6741                 3.8562                 0.6558
 IR Inten    --      0.3535                25.2119               796.1653

                     25                     26                     27
                      A                      A                      A
 Frequencies --   1041.8231              1127.0281              1186.6066
 Red. masses --      2.0570                 2.7254                 1.1509
 Frc consts  --      1.3155                 2.0396                 0.9548
 IR Inten    --     14.3253                28.1403               317.9430

                     28                     29                     30
                      A                      A                      A
 Frequencies --   1209.5896              1304.4741              1339.4030
 Red. masses --      1.4035                 6.2425                 6.6355
 Frc consts  --      1.2099                 6.2587                 7.0137
 IR Inten    --    194.6473               731.8002               138.5076

                     31                     32                     33
                      A                      A                      A
 Frequencies --   1376.3612              1397.0107              1491.9911
 Red. masses --      7.1708                 7.6515                 3.8194
 Frc consts  --      8.0035                 8.7983                 5.0094
 IR Inten    --    410.8719                63.6664                 2.0367

                     34                     35                     36
                      A                      A                      A
 Frequencies --   1541.6805              1552.3111              1634.5734
 Red. masses --      1.0868                 5.1627                 1.0659
 Frc consts  --      1.5220                 7.3296                 1.6779
 IR Inten    --    119.4394                36.8995               325.2954

                     37                     38                     39
                      A                      A                      A
 Frequencies --   1700.3948              1754.7427              1949.4488
 Red. masses --      1.0574                 1.0701                 8.2769
 Frc consts  --      1.8013                 1.9414                18.5329
 IR Inten    --    561.3731               181.4242               777.7200

                     40                     41                     42
                      A                      A                      A
 Frequencies --   2198.8631              2528.3486              3304.1116
 Red. masses --      1.0861                 1.0961                 1.0941
 Frc consts  --      3.0940                 4.1285                 7.0374
 IR Inten    --   2914.0387              2765.3578                 0.0372

                     43                     44                     45
                      A                      A                      A
 Frequencies --   3321.4178              3895.1727              3933.2984
 Red. masses --      1.1058                 1.0650                 1.0660
 Frc consts  --      7.1875                 9.5200                 9.7171
 IR Inten    --      0.1024               138.8266               128.4368

 - Thermochemistry -
 -------------------
 Temperature   298.150 Kelvin.  Pressure   1.00000 Atm.
 Atom     1 has atomic number  7 and mass  14.00307

 Molecular mass:   149.04366 amu.
 Principal axes and moments of inertia in atomic units:
                           1         2         3
     Eigenvalues --  1014.047411821.707992746.26817
           X            0.99997  -0.00619  -0.00347
           Y            0.00622   0.99995   0.00751
           Z            0.00343  -0.00753   0.99997
 This molecule is an asymmetric top.
 Rotational symmetry number  1.
 Warning -- assumption of classical behavior for rotation
           may cause significant error
 Rotational temperatures (Kelvin)      0.08541     0.04755     0.03154
 Rotational constants (GHZ):           1.77974     0.99069     0.65716
    1 imaginary frequencies ignored.
 Zero-point vibrational energy     317701.8 (Joules/Mol)
                                   75.93256 (Kcal/Mol)
 Warning -- explicit consideration of  13 degrees of freedom as
           vibrations may cause significant error
 Vibrational temperatures:     60.31   105.95   145.08   174.02   239.73
          (Kelvin)            352.20   521.62   547.60   576.85   655.30
                              724.11   823.83   865.54   976.31  1001.93
                             1054.91  1100.25  1140.40  1224.71  1251.92
                             1310.80  1414.55  1467.80  1498.95  1621.54
                             1707.26  1740.33  1876.85  1927.10  1980.28
                             2009.99  2146.64  2218.13  2233.43  2351.79
                             2446.49  2524.68  2804.82  3163.67  3637.73
                             4753.88  4778.78  5604.28  5659.14

 Zero-point correction=                           0.121006 (Hartree/Particle)
 Thermal correction to Energy=                    0.130715
 Thermal correction to Enthalpy=                  0.131659
 Thermal correction to Gibbs Free Energy=         0.084741
 Sum of electronic and zero-point Energies=           -583.341970
 Sum of electronic and thermal Energies=              -583.332261
 Sum of electronic and thermal Enthalpies=            -583.331317
 Sum of electronic and thermal Free Energies=         -583.378235

                     E (Thermal)             CV                S
                      KCal/Mol        Cal/Mol-Kelvin    Cal/Mol-Kelvin
 Total                   82.025             34.719             98.747
 Electronic               0.000              0.000              0.000
 Translational            0.889              2.981             40.908
 Rotational               0.889              2.981             30.007
 Vibrational             80.247             28.758             27.833
 Vibration     1          0.595              1.980              5.166
 Vibration     2          0.599              1.966              4.054
 Vibration     3          0.604              1.948              3.438
 Vibration     4          0.609              1.932              3.085
 Vibration     5          0.624              1.884              2.473
 Vibration     6          0.660              1.771              1.768
 Vibration     7          0.736              1.549              1.111
 Vibration     8          0.750              1.512              1.037
 Vibration     9          0.767              1.468              0.959
 Vibration    10          0.814              1.349              0.779
 Vibration    11          0.859              1.243              0.650
 Vibration    12          0.929              1.091              0.499
 Vibration    13          0.960              1.028              0.447

 Optimization completed.
    -- Stationary point found.
 Normal termination of Gaussian 16 at Fri May 26 15:58:14 2023.
