 Gaussian 16, Revision A.03,
 Gaussian 16:  ES64L-G16RevA.03 25-Dec-2016

 ----------------------------
 # opt freq 6-31+g(d,p) m062x
 ----------------------------

 ----------
 "Sketch 2"
 ----------
 Symbolic Z-matrix:
 Charge = -2 Multiplicity = 1

 SCF Done:  E(RM062X) =  -430.482940942     A.U. after   35 cycles
 Optimization completed.
    -- Stationary point found.
 Normal termination of Gaussian 16 at Sun Jul 23 02:14:42 2023.

 ----------------------------------------------------------------------
 #N Geom=AllCheck Guess=TCheck SCRF=Check GenChk RM062X/6-31+G(d,p) Fre
 q
 ----------------------------------------------------------------------

 Structure from the checkpoint file:  "/scratch/gongke2021/1-H-Tz-2-eletron/Gau-8558.chk"
 ----------
 "Sketch 2"
 ----------
 Charge = -2 Multiplicity = 1

                         Standard orientation:
 ---------------------------------------------------------------------
 Center     Atomic      Atomic             Coordinates (Angstroms)
 Number     Number       Type             X           Y           Z
 ---------------------------------------------------------------------
      1          7           0       -0.013059   -0.122925   -0.000231
      2          7           0        0.686125    1.138153   -0.000185
      3          6           0        2.005661    0.719144    0.000049
      4          6           0        2.074363   -0.660926    0.000270
      5          7           0        0.842245   -1.255370   -0.000057
      6          1           0        2.815400    1.440408    0.000109
      7          1           0        2.967691   -1.279186    0.000607
      8          1           0       -1.041045    1.716264    0.000405
      9          6           0       -1.336746   -0.140517   -0.000119
     10          8           0       -1.851833    1.159706    0.000259
     11          8           0       -2.124279   -1.122543   -0.000134
 ---------------------------------------------------------------------

 SCF Done:  E(RM062X) =  -430.482940942     A.U. after    1 cycles

 The electronic state is 1-A.
 Alpha  occ. eigenvalues --  -19.33924 -19.26265 -14.49898 -14.41302 -14.40794
 Alpha  occ. eigenvalues --  -10.32932 -10.23824 -10.23664  -0.87383  -0.78864
 Alpha  occ. eigenvalues --   -0.75910  -0.59380  -0.58646  -0.41548  -0.33329
 Alpha  occ. eigenvalues --   -0.31844  -0.26403  -0.20451  -0.19348  -0.19042
 Alpha  occ. eigenvalues --   -0.14713  -0.12795  -0.12268  -0.04660  -0.04649
 Alpha  occ. eigenvalues --   -0.00991   0.00318   0.01280   0.01816   0.19913
 Alpha virt. eigenvalues --    0.25420   0.25697   0.28967   0.30401   0.31125
 Alpha virt. eigenvalues --    0.31202   0.32826   0.33521   0.33929   0.34435
 Alpha virt. eigenvalues --    0.37239   0.39459   0.41839   0.43911   0.45385

 Mulliken charges:
               1
     1  N   -0.060850
     2  N   -0.522785
     3  C   -0.489981
     4  C   -0.271577
     5  N   -0.394681
     6  H    0.069277
     7  H    0.063192
     8  H    0.398199
     9  C    0.557867
    10  O   -0.600335
    11  O   -0.748327
 Sum of Mulliken charges =  -2.00000

 Dipole moment (field-independent basis, Debye):
    X=              0.2064    Y=              2.5062    Z=             -0.0006  Tot=              2.5147
 Quadrupole moment (field-independent basis, Debye-Ang):
   XX=            -92.2979   YY=            -71.1363   ZZ=            -62.4036
   XY=             -5.0466   XZ=             -0.0041   YZ=              0.0037

  Exact polarizability: 215.269  18.598 127.790  -2.518   2.107-146.956
 Approx polarizability: 191.618  18.012 143.611   0.062  -0.181 137.217

                      1                      2                      3
                      A                      A                      A
 Frequencies --     28.3465               190.6427               253.6608
 Red. masses --      6.1579                10.1878                 6.6595
 Frc consts  --      0.0029                 0.2182                 0.2525
 IR Inten    --     26.6035                 1.6406                13.4915

                      4                      5                      6
                      A                      A                      A
 Frequencies --    315.5710               443.7436               496.6388
 Red. masses --      7.1586                 7.8093                 2.1810
 Frc consts  --      0.4200                 0.9060                 0.3169
 IR Inten    --    431.5953                 3.7934                83.8814

                      7                      8                      9
                      A                      A                      A
 Frequencies --    549.3541               556.2696               593.9128
 Red. masses --      2.8418                 7.8115                 2.2674
 Frc consts  --      0.5053                 1.4241                 0.4712
 IR Inten    --      1.4940                51.6300                99.0483

                     10                     11                     12
                      A                      A                      A
 Frequencies --    645.4319               692.0018               779.5047
 Red. masses --      1.3090                11.3265                 7.6991
 Frc consts  --      0.3213                 3.1956                 2.7563
 IR Inten    --    110.3556                10.4001                38.2268

                     13                     14                     15
                      A                      A                      A
 Frequencies --    929.5558              1001.4163              1042.5342
 Red. masses --      8.0389                 1.2673                 6.8086
 Frc consts  --      4.0926                 0.7488                 4.3600
 IR Inten    --      5.3229              2562.6633                52.4776

                     16                     17                     18
                      A                      A                      A
 Frequencies --   1056.9257              1086.7965              1113.5298
 Red. masses --      2.6336                 1.2961                 6.9313
 Frc consts  --      1.7333                 0.9020                 5.0637
 IR Inten    --    231.2540                 2.0794               107.1371

                     19                     20                     21
                      A                      A                      A
 Frequencies --   1240.9017              1357.0011              1399.2983
 Red. masses --      5.6571                 1.9458                 1.7150
 Frc consts  --      5.1324                 2.1111                 1.9784
 IR Inten    --    840.3918               262.3998                47.9163

                     22                     23                     24
                      A                      A                      A
 Frequencies --   1427.3114              1504.6571              1793.5033
 Red. masses --      3.8102                 5.7465                 7.4860
 Frc consts  --      4.5733                 7.6653                14.1875
 IR Inten    --    251.0441              1429.5938               990.4006

                     25                     26                     27
                      A                      A                      A
 Frequencies --   3198.6136              3236.1452              3497.3337
 Red. masses --      1.0856                 1.0985                 1.0653
 Frc consts  --      6.5441                 6.7782                 7.6774
 IR Inten    --     23.0948                31.6527               151.6823

 - Thermochemistry -
 -------------------
 Temperature   298.150 Kelvin.  Pressure   1.00000 Atm.
 Atom     1 has atomic number  7 and mass  14.00307

 Molecular mass:   113.02253 amu.
 Principal axes and moments of inertia in atomic units:
                           1         2         3
     Eigenvalues --   358.670181009.476331368.14648
           X            0.99997  -0.00788  -0.00002
           Y            0.00788   0.99997  -0.00004
           Z            0.00002   0.00004   1.00000
 This molecule is an asymmetric top.
 Rotational symmetry number  1.
 Rotational temperatures (Kelvin)      0.24149     0.08580     0.06331
 Rotational constants (GHZ):           5.03176     1.78780     1.31911
 Zero-point vibrational energy     182015.4 (Joules/Mol)
                                   43.50273 (Kcal/Mol)
 Warning -- explicit consideration of   9 degrees of freedom as
           vibrations may cause significant error
 Vibrational temperatures:     40.78   274.29   364.96   454.04   638.45
          (Kelvin)            714.55   790.40   800.35   854.51   928.63
                              995.64  1121.53  1337.42  1440.81  1499.97
                             1520.68  1563.66  1602.12  1785.38  1952.42
                             2013.28  2053.58  2164.87  2580.45  4602.09
                             4656.09  5031.88

 Zero-point correction=                           0.069326 (Hartree/Particle)
 Thermal correction to Energy=                    0.076109
 Thermal correction to Enthalpy=                  0.077053
 Thermal correction to Gibbs Free Energy=         0.037371
 Sum of electronic and zero-point Energies=           -430.413615
 Sum of electronic and thermal Energies=              -430.406832
 Sum of electronic and thermal Enthalpies=            -430.405888
 Sum of electronic and thermal Free Energies=         -430.445570

                     E (Thermal)             CV                S
                      KCal/Mol        Cal/Mol-Kelvin    Cal/Mol-Kelvin
 Total                   47.759             24.263             83.517
 Electronic               0.000              0.000              0.000
 Translational            0.889              2.981             40.083
 Rotational               0.889              2.981             27.696
 Vibrational             45.981             18.301             15.738
 Vibration     1          0.593              1.984              5.942
 Vibration     2          0.634              1.853              2.222
 Vibration     3          0.665              1.757              1.705
 Vibration     4          0.703              1.644              1.333
 Vibration     5          0.803              1.375              0.815
 Vibration     6          0.852              1.257              0.667
 Vibration     7          0.905              1.141              0.546
 Vibration     8          0.912              1.126              0.531
 Vibration     9          0.952              1.045              0.460

 Optimization completed.
    -- Stationary point found.
 Normal termination of Gaussian 16 at Sun Jul 23 02:16:19 2023.
