 Gaussian 16, Revision A.03,
 Gaussian 16:  ES64L-G16RevA.03 25-Dec-2016

 ----------------------------
 # opt freq 6-31+g(d,p) m062x
 ----------------------------

 --
 RC
 --
 Symbolic Z-matrix:
 Charge = -1 Multiplicity = 2

 SCF Done:  E(UM062X) =  -430.640197726     A.U. after   22 cycles
 SCF Done:  E(UM062X) =  -430.644066355     A.U. after   20 cycles
 SCF Done:  E(UM062X) =  -430.648617480     A.U. after   19 cycles
 SCF Done:  E(UM062X) =  -430.652914253     A.U. after   17 cycles
 SCF Done:  E(UM062X) =  -430.655039891     A.U. after   17 cycles
 SCF Done:  E(UM062X) =  -430.655269349     A.U. after   17 cycles
 SCF Done:  E(UM062X) =  -430.655320259     A.U. after   16 cycles
 SCF Done:  E(UM062X) =  -430.655290983     A.U. after   17 cycles
 SCF Done:  E(UM062X) =  -430.655366678     A.U. after   14 cycles
 SCF Done:  E(UM062X) =  -430.655419666     A.U. after   17 cycles
 SCF Done:  E(UM062X) =  -430.658776565     A.U. after   18 cycles
 SCF Done:  E(UM062X) =  -430.660052073     A.U. after   18 cycles
 SCF Done:  E(UM062X) =  -430.660437593     A.U. after   16 cycles
 SCF Done:  E(UM062X) =  -430.660756516     A.U. after   16 cycles
 SCF Done:  E(UM062X) =  -430.660849471     A.U. after   15 cycles
 SCF Done:  E(UM062X) =  -430.660866659     A.U. after   14 cycles
 SCF Done:  E(UM062X) =  -430.660873171     A.U. after   14 cycles
 SCF Done:  E(UM062X) =  -430.660876886     A.U. after   14 cycles
 SCF Done:  E(UM062X) =  -430.660877379     A.U. after   11 cycles
 Optimization completed.
    -- Stationary point found.
 Normal termination of Gaussian 16 at Mon Jun  5 04:45:38 2023.

 ----------------------------------------------------------------------
 #N Geom=AllCheck Guess=TCheck SCRF=Check GenChk UM062X/6-31+G(d,p) Fre
 q
 ----------------------------------------------------------------------

 Structure from the checkpoint file:  "RC.chk"
 --
 RC
 --
 Charge = -1 Multiplicity = 2

                         Standard orientation:
 ---------------------------------------------------------------------
 Center     Atomic      Atomic             Coordinates (Angstroms)
 Number     Number       Type             X           Y           Z
 ---------------------------------------------------------------------
      1          7           0        0.017415   -0.134328    0.376587
      2          7           0       -0.732499    1.051096    0.299973
      3          6           0       -1.999251    0.659196   -0.136986
      4          6           0       -1.966497   -0.716783   -0.206095
      5          7           0       -0.751122   -1.218109    0.070957
      6          1           0       -2.804241    1.366506   -0.256492
      7          1           0       -2.780889   -1.385558   -0.453284
      8          1           0       -0.165513    1.768779   -0.157012
      9          6           0        1.471033   -0.015479   -0.020062
     10          8           0        1.787373    1.176257   -0.219092
     11          8           0        2.085424   -1.076500   -0.054280
 ---------------------------------------------------------------------

 SCF Done:  E(UM062X) =  -430.660877379     A.U. after    1 cycles

 The electronic state is 2-A.
 Alpha  occ. eigenvalues --  -19.43078 -19.42422 -14.68162 -14.66891 -14.62705
 Alpha  occ. eigenvalues --  -10.50551 -10.43804 -10.43559  -1.04877  -0.98739
 Alpha  occ. eigenvalues --   -0.91238  -0.84449  -0.76315  -0.59458  -0.55329
 Alpha  occ. eigenvalues --   -0.51397  -0.42636  -0.41268  -0.37394  -0.35910
 Alpha  occ. eigenvalues --   -0.35269  -0.32025  -0.30825  -0.24135  -0.22015
 Alpha  occ. eigenvalues --   -0.19867  -0.17499  -0.15841  -0.15444  -0.03236
 Alpha virt. eigenvalues --    0.12631   0.13607   0.16355   0.17968   0.18331
 Alpha virt. eigenvalues --    0.19075   0.19261   0.20968   0.21177   0.21974
 Alpha virt. eigenvalues --    0.24918   0.25769   0.27180   0.27944   0.28812

  Beta  occ. eigenvalues --  -19.43060 -19.42380 -14.67653 -14.66462 -14.62228
  Beta  occ. eigenvalues --  -10.50532 -10.43697 -10.43553  -1.03796  -0.98373
  Beta  occ. eigenvalues --   -0.91094  -0.83001  -0.75267  -0.57983  -0.54855
  Beta  occ. eigenvalues --   -0.50490  -0.41837  -0.39491  -0.36729  -0.35557
  Beta  occ. eigenvalues --   -0.34429  -0.31839  -0.29903  -0.21314  -0.18966
  Beta  occ. eigenvalues --   -0.17963  -0.15806  -0.15360  -0.15207
  Beta virt. eigenvalues --    0.12095   0.13494   0.13871   0.16000   0.17308
  Beta virt. eigenvalues --    0.18623   0.18912   0.18987   0.20339   0.20684
  Beta virt. eigenvalues --    0.21981   0.24731   0.25631   0.26734   0.27823

 Mulliken charges and spin densities:
               1          2
     1  N   -0.083374   0.204030
     2  N   -0.311320   0.192546
     3  C   -0.264968   0.350664
     4  C   -0.118696  -0.174218
     5  N   -0.186356   0.369474
     6  H    0.135350  -0.014881
     7  H    0.125379   0.005182
     8  H    0.358896   0.022185
     9  C    0.628281   0.014777
    10  O   -0.687326   0.009414
    11  O   -0.595867   0.020828
 Sum of Mulliken charges =  -1.00000   1.00000

 Dipole moment (field-independent basis, Debye):
    X=             -6.5560    Y=              2.2422    Z=             -0.4223  Tot=              6.9417
 Quadrupole moment (field-independent basis, Debye-Ang):
   XX=            -65.5665   YY=            -57.2381   ZZ=            -50.7970
   XY=             -0.0224   XZ=              2.8396   YZ=             -0.0852

  Exact polarizability:  92.854  -3.812  78.060   3.706  -0.587  48.109
 Approx polarizability:  95.382  -6.186 104.500   4.952  -0.679  58.485

                      1                      2                      3
                      A                      A                      A
 Frequencies --    106.9397               121.4795               253.0826
 Red. masses --      9.3481                 5.8219                 7.0460
 Frc consts  --      0.0630                 0.0506                 0.2659
 IR Inten    --      1.2360                 4.7033                 2.8454

                      4                      5                      6
                      A                      A                      A
 Frequencies --    390.4112               442.8979               540.1191
 Red. masses --      6.6472                 6.8538                 3.3255
 Frc consts  --      0.5969                 0.7921                 0.5716
 IR Inten    --      2.8499                23.7410                26.2833

                      7                      8                      9
                      A                      A                      A
 Frequencies --    561.2739               600.1844               737.5283
 Red. masses --      1.6689                 4.0874                 2.4220
 Frc consts  --      0.3098                 0.8675                 0.7762
 IR Inten    --     62.7440                 1.9216               104.6081

                     10                     11                     12
                      A                      A                      A
 Frequencies --    777.3308               793.6216               878.1837
 Red. masses --      4.7507                 8.4988                 1.3147
 Frc consts  --      1.6913                 3.1538                 0.5974
 IR Inten    --    225.8544                57.8311                10.3706

                     13                     14                     15
                      A                      A                      A
 Frequencies --    917.0772               945.7686              1063.2772
 Red. masses --      3.1012                 3.9249                 1.6594
 Frc consts  --      1.5367                 2.0685                 1.1053
 IR Inten    --     30.2378                 8.8086               196.0959

                     16                     17                     18
                      A                      A                      A
 Frequencies --   1102.6834              1156.5301              1206.5747
 Red. masses --      1.4691                 3.4014                 4.6214
 Frc consts  --      1.0525                 2.6805                 3.9640
 IR Inten    --     20.3840                97.3521                55.5912

                     19                     20                     21
                      A                      A                      A
 Frequencies --   1258.6488              1309.7522              1384.9658
 Red. masses --      3.4934                 8.2648                 2.7670
 Frc consts  --      3.2607                 8.3533                 3.1271
 IR Inten    --     20.9887               444.7792               114.9932

                     22                     23                     24
                      A                      A                      A
 Frequencies --   1416.2467              1498.5791              1850.9652
 Red. masses --      2.3480                 4.0525                12.3339
 Frc consts  --      2.7748                 5.3621                24.8971
 IR Inten    --     27.3751                 7.7109               636.1125

                     25                     26                     27
                      A                      A                      A
 Frequencies --   3260.4443              3310.6802              3461.2401
 Red. masses --      1.0929                 1.0981                 1.0773
 Frc consts  --      6.8452                 7.0912                 7.6043
 IR Inten    --     21.0015                 6.2966                93.7294

 - Thermochemistry -
 -------------------
 Temperature   298.150 Kelvin.  Pressure   1.00000 Atm.
 Atom     1 has atomic number  7 and mass  14.00307

 Molecular mass:   113.02253 amu.
 Principal axes and moments of inertia in atomic units:
                           1         2         3
     Eigenvalues --   359.38898 989.327571311.95462
           X            0.99997  -0.00203   0.00762
           Y            0.00203   1.00000  -0.00020
           Z           -0.00762   0.00021   0.99997
 This molecule is an asymmetric top.
 Rotational symmetry number  1.
 Rotational temperatures (Kelvin)      0.24100     0.08755     0.06602
 Rotational constants (GHZ):           5.02169     1.82421     1.37561
 Zero-point vibrational energy     187493.6 (Joules/Mol)
                                   44.81205 (Kcal/Mol)
 Warning -- explicit consideration of   8 degrees of freedom as
           vibrations may cause significant error
 Vibrational temperatures:    153.86   174.78   364.13   561.71   637.23
          (Kelvin)            777.11   807.55   863.53  1061.14  1118.41
                             1141.84  1263.51  1319.47  1360.75  1529.82
                             1586.52  1663.99  1735.99  1810.91  1884.44
                             1992.66  2037.66  2156.12  2663.13  4691.05
                             4763.33  4979.95

 Zero-point correction=                           0.071413 (Hartree/Particle)
 Thermal correction to Energy=                    0.077823
 Thermal correction to Enthalpy=                  0.078768
 Thermal correction to Gibbs Free Energy=         0.039810
 Sum of electronic and zero-point Energies=           -430.589465
 Sum of electronic and thermal Energies=              -430.583054
 Sum of electronic and thermal Enthalpies=            -430.582110
 Sum of electronic and thermal Free Energies=         -430.621067

                     E (Thermal)             CV                S
                      KCal/Mol        Cal/Mol-Kelvin    Cal/Mol-Kelvin
 Total                   48.835             22.974             81.993
 Electronic               0.000              0.000              1.377
 Translational            0.889              2.981             40.083
 Rotational               0.889              2.981             27.636
 Vibrational             47.057             17.012             12.897
 Vibration     1          0.606              1.944              3.324
 Vibration     2          0.609              1.931              3.077
 Vibration     3          0.664              1.758              1.709
 Vibration     4          0.758              1.491              0.999
 Vibration     5          0.803              1.377              0.818
 Vibration     6          0.895              1.161              0.565
 Vibration     7          0.917              1.115              0.521
 Vibration     8          0.958              1.031              0.449

                           ! Non-Optimized Parameters !
 Normal termination of Gaussian 16 at Mon Jun  5 04:47:41 2023.
