 Gaussian 16, Revision A.03,
 Gaussian 16:  ES64L-G16RevA.03 25-Dec-2016

 ----------------------------
 # opt freq 6-31+g(d,p) m062x
 ----------------------------

 -------
 h2o-opt
 -------
 Symbolic Z-matrix:
 Charge =  0 Multiplicity = 1

 SCF Done:  E(RM062X) =  -506.668965373     A.U. after   16 cycles
 SCF Done:  E(RM062X) =  -506.804008988     A.U. after   14 cycles
 SCF Done:  E(RM062X) =  -507.018708900     A.U. after   15 cycles
 SCF Done:  E(RM062X) =  -507.051169069     A.U. after   15 cycles
 SCF Done:  E(RM062X) =  -507.058718453     A.U. after   15 cycles
 SCF Done:  E(RM062X) =  -507.034517343     A.U. after   15 cycles
 SCF Done:  E(RM062X) =  -507.069035671     A.U. after   14 cycles
 SCF Done:  E(RM062X) =  -507.068057414     A.U. after   14 cycles
 SCF Done:  E(RM062X) =  -507.071585172     A.U. after   13 cycles
 SCF Done:  E(RM062X) =  -507.073398458     A.U. after   13 cycles
 SCF Done:  E(RM062X) =  -507.076031715     A.U. after    9 cycles
 SCF Done:  E(RM062X) =  -507.076032612     A.U. after    9 cycles
 SCF Done:  E(RM062X) =  -507.076033132     A.U. after    9 cycles
 SCF Done:  E(RM062X) =  -507.076033539     A.U. after    9 cycles
 SCF Done:  E(RM062X) =  -507.076033745     A.U. after    9 cycles
 SCF Done:  E(RM062X) =  -507.076033873     A.U. after    9 cycles
 SCF Done:  E(RM062X) =  -507.076033944     A.U. after    9 cycles
 SCF Done:  E(RM062X) =  -507.076033977     A.U. after    7 cycles
 SCF Done:  E(RM062X) =  -507.076034017     A.U. after    8 cycles
 Optimization completed.
    -- Stationary point found.
 Normal termination of Gaussian 16 at Thu May 25 04:15:59 2023.

 ----------------------------------------------------------------------
 #N Geom=AllCheck Guess=TCheck SCRF=Check GenChk RM062X/6-31+G(d,p) Fre
 q
 ----------------------------------------------------------------------

 Structure from the checkpoint file:  "/scratch/gongke2021/1-H-Tz-RC/Gau-11960.chk"
 -------
 h2o-opt
 -------
 Charge =  0 Multiplicity = 1

                         Standard orientation:
 ---------------------------------------------------------------------
 Center     Atomic      Atomic             Coordinates (Angstroms)
 Number     Number       Type             X           Y           Z
 ---------------------------------------------------------------------
      1          7           0       -0.467804   -0.299496    0.038311
      2          7           0       -1.243066    0.784512    0.012581
      3          6           0       -2.547268    0.447503   -0.024178
      4          6           0       -2.530904   -0.929472   -0.018540
      5          7           0       -1.237801   -1.343557    0.019714
      6          1           0       -3.340826    1.176362   -0.051183
      7          1           0       -3.350164   -1.630112   -0.039759
      8          1           0       -0.781145    1.695963    0.020559
      9          6           0        2.214347   -0.859322   -0.010658
     10          8           0        2.525895    0.267578   -0.050848
     11          8           0        1.982985   -1.992121    0.028157
     12          8           0        0.818953    2.660454   -0.042428
     13          1           0        1.182392    3.363792    0.503424
     14          1           0        1.490731    1.964246   -0.086074
 ---------------------------------------------------------------------

 SCF Done:  E(RM062X) =  -507.076034017     A.U. after    1 cycles

 The electronic state is 1-A.
 Alpha  occ. eigenvalues --  -19.72793 -19.72564 -19.67091 -14.85005 -14.82837
 Alpha  occ. eigenvalues --  -14.78701 -10.74990 -10.60064 -10.57490  -1.28878
 Alpha  occ. eigenvalues --   -1.23866  -1.22280  -1.15558  -1.00952  -0.90789
 Alpha  occ. eigenvalues --   -0.72940  -0.70758  -0.66550  -0.65098  -0.62961
 Alpha  occ. eigenvalues --   -0.60103  -0.59850  -0.59648  -0.54920  -0.53248
 Alpha  occ. eigenvalues --   -0.52179  -0.48741  -0.44093  -0.44060  -0.42051
 Alpha  occ. eigenvalues --   -0.41077  -0.36443  -0.34418  -0.32226
 Alpha virt. eigenvalues --    0.00694   0.01933   0.03097   0.03653   0.04643
 Alpha virt. eigenvalues --    0.05293   0.05630   0.06866   0.07493   0.07658
 Alpha virt. eigenvalues --    0.08656   0.08853   0.09075   0.09569   0.11012

 Mulliken charges:
               1
     1  N   -0.125734
     2  N   -0.219543
     3  C   -0.117460
     4  C   -0.188162
     5  N   -0.176774
     6  H    0.191735
     7  H    0.175078
     8  H    0.420892
     9  C    0.783906
    10  O   -0.446684
    11  O   -0.311138
    12  O   -0.809802
    13  H    0.390859
    14  H    0.432826
 Sum of Mulliken charges =  -0.00000

 Dipole moment (field-independent basis, Debye):
    X=             -0.7510    Y=              3.8764    Z=              0.8425  Tot=              4.0373
 Quadrupole moment (field-independent basis, Debye-Ang):
   XX=            -40.0162   YY=            -50.1604   ZZ=            -52.7022
   XY=              0.5570   XZ=              1.4050   YZ=              3.9879

  Exact polarizability:  72.690   3.757  80.178   0.585   0.165  41.880
 Approx polarizability:  83.571   5.145 107.317   0.820  -0.036  51.195

                      1                      2                      3
                      A                      A                      A
 Frequencies --     27.8005                45.7191                64.7219
 Red. masses --     10.3452                 5.9890                 6.0670
 Frc consts  --      0.0047                 0.0074                 0.0150
 IR Inten    --      0.3867                 5.6277                11.0024

                      4                      5                      6
                      A                      A                      A
 Frequencies --     82.5749               101.7154               137.1489
 Red. masses --      4.2082                 9.4364                 8.4106
 Frc consts  --      0.0169                 0.0575                 0.0932
 IR Inten    --      5.6597                 2.1886                 5.5492

                      7                      8                      9
                      A                      A                      A
 Frequencies --    159.9327               177.4225               201.3093
 Red. masses --      1.1763                 6.1075                 6.0002
 Frc consts  --      0.0177                 0.1133                 0.1433
 IR Inten    --     91.1740                 9.9081                19.2038

                     10                     11                     12
                      A                      A                      A
 Frequencies --    338.2754               469.7734               648.8894
 Red. masses --      1.1451                 1.0866                12.5156
 Frc consts  --      0.0772                 0.1413                 3.1049
 IR Inten    --    109.6387               176.2440               101.1786

                     13                     14                     15
                      A                      A                      A
 Frequencies --    651.8204               671.7969               727.9706
 Red. masses --      3.9911                12.7509                 9.1570
 Frc consts  --      0.9991                 3.3905                 2.8591
 IR Inten    --      0.7981                34.9798                 4.5680

                     16                     17                     18
                      A                      A                      A
 Frequencies --    803.4359               856.8126               896.0374
 Red. masses --      1.2153                 1.1328                 1.2667
 Frc consts  --      0.4622                 0.4900                 0.5992
 IR Inten    --     72.5923                69.7073                22.2551

                     19                     20                     21
                      A                      A                      A
 Frequencies --    969.1219               988.7453              1100.6112
 Red. masses --      6.0587                 2.7961                 2.0279
 Frc consts  --      3.3526                 1.6105                 1.4473
 IR Inten    --      3.2106                 3.0549                31.4640

                     22                     23                     24
                      A                      A                      A
 Frequencies --   1137.5952              1202.8936              1235.0570
 Red. masses --      1.3929                 3.2773                 3.8466
 Frc consts  --      1.0620                 2.7940                 3.4570
 IR Inten    --     26.6270                20.7704                21.5070

                     25                     26                     27
                      A                      A                      A
 Frequencies --   1353.3660              1408.4983              1426.8762
 Red. masses --      9.2525                15.9103                 2.1233
 Frc consts  --      9.9848                18.5970                 2.5471
 IR Inten    --     20.3299                 5.8810                 9.5506

                     28                     29                     30
                      A                      A                      A
 Frequencies --   1512.2163              1589.8291              1627.5220
 Red. masses --      3.8844                 2.4381                 1.0821
 Frc consts  --      5.2336                 3.6308                 1.6888
 IR Inten    --      0.1347                25.6299                99.0185

                     31                     32                     33
                      A                      A                      A
 Frequencies --   2459.8388              3315.3083              3335.8978
 Red. masses --     12.8060                 1.0932                 1.1077
 Frc consts  --     45.6539                 7.0797                 7.2626
 IR Inten    --    727.9741                 1.4302                 0.5432

                     34                     35                     36
                      A                      A                      A
 Frequencies --   3483.8846              3829.7389              3976.6989
 Red. masses --      1.0891                 1.0493                 1.0785
 Frc consts  --      7.7882                 9.0671                10.0488
 IR Inten    --    619.1751               191.5085               190.7236

 - Thermochemistry -
 -------------------
 Temperature   298.150 Kelvin.  Pressure   1.00000 Atm.
 Atom     1 has atomic number  7 and mass  14.00307

 Molecular mass:   131.03309 amu.
 Principal axes and moments of inertia in atomic units:
                           1         2         3
     Eigenvalues --   916.761631652.180522566.23329
           X            0.99945   0.03308   0.00169
           Y           -0.03309   0.99943   0.00616
           Z           -0.00148  -0.00622   0.99998
 This molecule is an asymmetric top.
 Rotational symmetry number  1.
 Warning -- assumption of classical behavior for rotation
           may cause significant error
 Rotational temperatures (Kelvin)      0.09448     0.05242     0.03375
 Rotational constants (GHZ):           1.96860     1.09234     0.70326
 Zero-point vibrational energy     257297.9 (Joules/Mol)
                                   61.49568 (Kcal/Mol)
 Warning -- explicit consideration of  11 degrees of freedom as
           vibrations may cause significant error
 Vibrational temperatures:     40.00    65.78    93.12   118.81   146.35
          (Kelvin)            197.33   230.11   255.27   289.64   486.70
                              675.90   933.61   937.82   966.57  1047.39
                             1155.97  1232.76  1289.20  1394.35  1422.58
                             1583.53  1636.75  1730.70  1776.97  1947.19
                             2026.51  2052.96  2175.74  2287.41  2341.64
                             3539.16  4769.99  4799.61  5012.53  5510.14
                             5721.58

 Zero-point correction=                           0.098000 (Hartree/Particle)
 Thermal correction to Energy=                    0.108814
 Thermal correction to Enthalpy=                  0.109759
 Thermal correction to Gibbs Free Energy=         0.058931
 Sum of electronic and zero-point Energies=           -506.978034
 Sum of electronic and thermal Energies=              -506.967220
 Sum of electronic and thermal Enthalpies=            -506.966276
 Sum of electronic and thermal Free Energies=         -507.017103

                     E (Thermal)             CV                S
                      KCal/Mol        Cal/Mol-Kelvin    Cal/Mol-Kelvin
 Total                   68.282             33.680            106.975
 Electronic               0.000              0.000              0.000
 Translational            0.889              2.981             40.524
 Rotational               0.889              2.981             29.743
 Vibrational             66.505             27.719             36.708
 Vibration     1          0.593              1.984              5.980
 Vibration     2          0.595              1.979              4.994
 Vibration     3          0.597              1.971              4.308
 Vibration     4          0.600              1.961              3.829
 Vibration     5          0.604              1.948              3.421
 Vibration     6          0.614              1.916              2.843
 Vibration     7          0.622              1.891              2.551
 Vibration     8          0.628              1.870              2.355
 Vibration     9          0.638              1.838              2.121
 Vibration    10          0.719              1.599              1.220
 Vibration    11          0.827              1.317              0.738

                           ! Non-Optimized Parameters !
 Normal termination of Gaussian 16 at Thu May 25 04:16:48 2023.
