 Gaussian 16, Revision C.01,
 Gaussian 16:  ES64L-G16RevC.01  3-Jul-2019

 ----------------------------
 # opt freq 6-31+g(d,p) m062x
 ----------------------------

 --
 RC
 --
 Symbolic Z-matrix:
 Charge = -1 Multiplicity = 2

 SCF Done:  E(UM062X) =  -506.988221245     A.U. after   20 cycles
 SCF Done:  E(UM062X) =  -507.016560419     A.U. after   19 cycles
 SCF Done:  E(UM062X) =  -507.045056215     A.U. after   18 cycles
 SCF Done:  E(UM062X) =  -507.050245512     A.U. after   19 cycles
 SCF Done:  E(UM062X) =  -507.060051649     A.U. after   18 cycles
 SCF Done:  E(UM062X) =  -507.063728106     A.U. after   17 cycles
 SCF Done:  E(UM062X) =  -507.060098388     A.U. after   19 cycles
 SCF Done:  E(UM062X) =  -507.061500175     A.U. after   17 cycles
 SCF Done:  E(UM062X) =  -507.069348076     A.U. after   13 cycles
 SCF Done:  E(UM062X) =  -507.074051782     A.U. after   16 cycles
 SCF Done:  E(UM062X) =  -507.080908363     A.U. after   14 cycles
 SCF Done:  E(UM062X) =  -507.080913390     A.U. after   14 cycles
 SCF Done:  E(UM062X) =  -507.080917140     A.U. after   11 cycles
 SCF Done:  E(UM062X) =  -507.080919995     A.U. after   11 cycles
 SCF Done:  E(UM062X) =  -507.080920918     A.U. after   11 cycles
 SCF Done:  E(UM062X) =  -507.080921678     A.U. after   11 cycles
 SCF Done:  E(UM062X) =  -507.080922053     A.U. after   11 cycles
 SCF Done:  E(UM062X) =  -507.080922429     A.U. after   11 cycles
 SCF Done:  E(UM062X) =  -507.080922583     A.U. after   11 cycles
 Optimization completed.
    -- Stationary point found.
 Normal termination of Gaussian 16 at Thu Dec  7 09:11:03 2023.

 ----------------------------------------------------------------------
 #N Geom=AllCheck Guess=TCheck SCRF=Check GenChk UM062X/6-31+G(d,p) Fre
 q
 ----------------------------------------------------------------------

 Structure from the checkpoint file:  "/home/gau/soft/scratch/Gau-170082.chk"
 --
 RC
 --
 Charge = -1 Multiplicity = 2

                         Standard orientation:
 ---------------------------------------------------------------------
 Center     Atomic      Atomic             Coordinates (Angstroms)
 Number     Number       Type             X           Y           Z
 ---------------------------------------------------------------------
      1          7           0       -0.368130   -0.336034    0.119137
      2          7           0       -0.433625    0.958572   -0.423930
      3          6           0       -1.763914    1.339676   -0.258648
      4          6           0       -2.435528    0.214327    0.162288
      5          7           0       -1.612286   -0.828827    0.361080
      6          1           0       -2.109425    2.315675   -0.559051
      7          1           0       -3.499397    0.096676    0.319236
      8          1           0        0.338658    1.559890   -0.126523
      9          6           0        0.818601   -1.173340   -0.110220
     10          8           0        1.833015   -0.497797   -0.446219
     11          8           0        0.678977   -2.373703    0.089105
     12          8           0        2.219592    1.920324    0.348587
     13          1           0        2.162345    0.972768    0.000367
     14          1           0        2.438480    1.824451    1.279655
 ---------------------------------------------------------------------

 SCF Done:  E(UM062X) =  -507.080922583     A.U. after    1 cycles

 The electronic state is 2-A.
 Alpha  occ. eigenvalues --  -19.49298 -19.44522 -19.43572 -14.69684 -14.67857
 Alpha  occ. eigenvalues --  -14.63594 -10.52025 -10.44522 -10.44190  -1.06105
 Alpha  occ. eigenvalues --   -1.00184  -0.97461  -0.92188  -0.85561  -0.77734
 Alpha  occ. eigenvalues --   -0.61130  -0.56122  -0.52835  -0.47303  -0.43422
 Alpha  occ. eigenvalues --   -0.41174  -0.38504  -0.38105  -0.36463  -0.33855
 Alpha  occ. eigenvalues --   -0.32357  -0.30765  -0.25465  -0.24368  -0.22924
 Alpha  occ. eigenvalues --   -0.20622  -0.19241  -0.17419  -0.16604  -0.03683
 Alpha virt. eigenvalues --    0.12605   0.13465   0.16032   0.17410   0.17933
 Alpha virt. eigenvalues --    0.18671   0.18924   0.20232   0.20950   0.21833
 Alpha virt. eigenvalues --    0.23754   0.24707   0.26195   0.27001   0.27707

  Beta  occ. eigenvalues --  -19.49295 -19.44496 -19.43508 -14.69232 -14.67438
  Beta  occ. eigenvalues --  -14.63102 -10.52022 -10.44350 -10.44264  -1.05025
  Beta  occ. eigenvalues --   -0.99780  -0.97439  -0.92027  -0.84076  -0.76709
  Beta  occ. eigenvalues --   -0.59809  -0.55648  -0.51977  -0.47128  -0.42217
  Beta  occ. eigenvalues --   -0.39874  -0.38079  -0.37302  -0.35980  -0.33674
  Beta  occ. eigenvalues --   -0.31491  -0.30520  -0.24885  -0.21618  -0.20237
  Beta  occ. eigenvalues --   -0.19347  -0.17331  -0.16904  -0.16053
  Beta virt. eigenvalues --    0.11932   0.13021   0.13491   0.15463   0.16644
  Beta virt. eigenvalues --    0.18093   0.18266   0.18675   0.19677   0.19932
  Beta virt. eigenvalues --    0.21753   0.23650   0.24458   0.25798   0.26736

 Mulliken charges and spin densities:
               1          2
     1  N   -0.158187   0.175538
     2  N   -0.239772   0.175065
     3  C   -0.279688   0.352590
     4  C   -0.115651  -0.181284
     5  N   -0.257535   0.422045
     6  H    0.141868  -0.013663
     7  H    0.129130   0.005090
     8  H    0.377811   0.011154
     9  C    0.712716   0.005069
    10  O   -0.691532   0.013512
    11  O   -0.578084   0.032745
    12  O   -0.875386   0.002293
    13  H    0.478854   0.000027
    14  H    0.355457  -0.000181
 Sum of Mulliken charges =  -1.00000   1.00000

 Dipole moment (field-independent basis, Debye):
    X=             -3.4681    Y=              5.1014    Z=              1.2568  Tot=              6.2954
 Quadrupole moment (field-independent basis, Debye-Ang):
   XX=            -68.1863   YY=            -76.2564   ZZ=            -55.7875
   XY=             -2.3400   XZ=              5.8610   YZ=              2.4022

  Exact polarizability:      96.378      -5.479      94.853      -2.939      -4.646      55.455
 Approx polarizability:     100.424       0.374     113.477      -5.202      -9.795      68.244

                      1                      2                      3
                      A                      A                      A
 Frequencies --     51.9093                94.5340               110.2421
 Red. masses --      4.9003                 8.5321                 5.0894
 Frc consts  --      0.0078                 0.0449                 0.0364
 IR Inten    --      5.8164                 0.1369                 1.9548

                      4                      5                      6
                      A                      A                      A
 Frequencies --    148.8123               218.0238               261.6203
 Red. masses --      8.2073                 4.1855                 2.0646
 Frc consts  --      0.1071                 0.1172                 0.0833
 IR Inten    --      6.4734                14.3441                28.1084

                      7                      8                      9
                      A                      A                      A
 Frequencies --    279.8302               395.7021               433.1612
 Red. masses --      2.7014                 4.1548                 8.7438
 Frc consts  --      0.1246                 0.3833                 0.9666
 IR Inten    --     79.4083                 4.5624                12.6984

                     10                     11                     12
                      A                      A                      A
 Frequencies --    470.5291               543.8884               577.8989
 Red. masses --      1.1357                 6.4225                 1.4287
 Frc consts  --      0.1481                 1.1194                 0.2811
 IR Inten    --     62.5906                16.9417               102.7514

                     13                     14                     15
                      A                      A                      A
 Frequencies --    600.4342               771.4216               779.0292
 Red. masses --      3.2130                 2.5399                10.8983
 Frc consts  --      0.6825                 0.8905                 3.8969
 IR Inten    --      0.8541               146.9964                39.3016

                     16                     17                     18
                      A                      A                      A
 Frequencies --    809.1581               877.1549               917.1787
 Red. masses --      3.4048                 1.2436                 3.6394
 Frc consts  --      1.3134                 0.5638                 1.8038
 IR Inten    --    114.2530                11.8027                36.9408

                     19                     20                     21
                      A                      A                      A
 Frequencies --    949.0494              1000.1992              1108.9449
 Red. masses --      3.4312                 1.1302                 1.4099
 Frc consts  --      1.8208                 0.6662                 1.0216
 IR Inten    --     29.3871               318.2047                38.1664

                     22                     23                     24
                      A                      A                      A
 Frequencies --   1110.3522              1219.1071              1237.3681
 Red. masses --      1.7460                 5.5326                 5.5701
 Frc consts  --      1.2683                 4.8447                 5.0247
 IR Inten    --     96.8586                69.0081                20.3730

                     25                     26                     27
                      A                      A                      A
 Frequencies --   1291.5568              1325.8094              1403.3561
 Red. masses --      3.8761                11.7658                 2.5187
 Frc consts  --      3.8095                12.1852                 2.9225
 IR Inten    --     17.3846               779.7993                30.6109

                     28                     29                     30
                      A                      A                      A
 Frequencies --   1476.0558              1517.2341              1670.6999
 Red. masses --      1.7065                 3.0134                 1.0707
 Frc consts  --      2.1906                 4.0871                 1.7608
 IR Inten    --     13.9940                 7.6511                74.5233

                     31                     32                     33
                      A                      A                      A
 Frequencies --   1821.8141              2940.8780              3266.1551
 Red. masses --     11.6149                 1.0817                 1.0932
 Frc consts  --     22.7130                 5.5121                 6.8710
 IR Inten    --    786.0759              1320.9290                18.7650

                     34                     35                     36
                      A                      A                      A
 Frequencies --   3314.2133              3449.2627              3950.4951
 Red. masses --      1.0986                 1.0815                 1.0653
 Frc consts  --      7.1098                 7.5810                 9.7959
 IR Inten    --      4.7137               507.5362                37.4364

 - Thermochemistry -
 -------------------
 Temperature   298.150 Kelvin.  Pressure   1.00000 Atm.
 Atom     1 has atomic number  7 and mass  14.00307

 Molecular mass:   131.03309 amu.
 Principal axes and moments of inertia in atomic units:
                           1         2         3
     Eigenvalues --   859.380761207.801441973.59363
           X            0.99978   0.01848   0.01000
           Y           -0.01852   0.99982   0.00437
           Z           -0.00992  -0.00456   0.99994
 This molecule is an asymmetric top.
 Rotational symmetry number  1.
 Warning -- assumption of classical behavior for rotation
           may cause significant error
 Rotational temperatures (Kelvin)      0.10079     0.07171     0.04389
 Rotational constants (GHZ):           2.10005     1.49424     0.91444
 Zero-point vibrational energy     253566.9 (Joules/Mol)
                                   60.60395 (Kcal/Mol)
 Warning -- explicit consideration of  13 degrees of freedom as
           vibrations may cause significant error
 Vibrational temperatures:     74.69   136.01   158.61   214.11   313.69
          (Kelvin)            376.41   402.61   569.33   623.22   676.99
                              782.53   831.47   863.89  1109.90  1120.85
                             1164.20  1262.03  1319.62  1365.47  1439.06
                             1595.52  1597.55  1754.02  1780.30  1858.26
                             1907.54  2019.12  2123.72  2182.96  2403.76
                             2621.18  4231.27  4699.27  4768.41  4962.72
                             5683.88

 Zero-point correction=                           0.096579 (Hartree/Particle)
 Thermal correction to Energy=                    0.105721
 Thermal correction to Enthalpy=                  0.106665
 Thermal correction to Gibbs Free Energy=         0.061085
 Sum of electronic and zero-point Energies=           -506.984344
 Sum of electronic and thermal Energies=              -506.975202
 Sum of electronic and thermal Enthalpies=            -506.974257
 Sum of electronic and thermal Free Energies=         -507.019837

                     E (Thermal)             CV                S
                      KCal/Mol        Cal/Mol-Kelvin    Cal/Mol-Kelvin
 Total                   66.341             31.830             95.931
 Electronic               0.000              0.000              1.377
 Translational            0.889              2.981             40.524
 Rotational               0.889              2.981             29.106
 Vibrational             64.563             25.869             24.924
 Vibration     1          0.596              1.977              4.743
 Vibration     2          0.603              1.953              3.564
 Vibration     3          0.606              1.941              3.265
 Vibration     4          0.618              1.904              2.687
 Vibration     5          0.646              1.814              1.975
 Vibration     6          0.669              1.743              1.651
 Vibration     7          0.680              1.711              1.535
 Vibration     8          0.762              1.479              0.979
 Vibration     9          0.794              1.398              0.848
 Vibration    10          0.828              1.315              0.736
 Vibration    11          0.899              1.153              0.557
 Vibration    12          0.934              1.079              0.489
 Vibration    13          0.959              1.031              0.449

                           ! Non-Optimized Parameters !
 Normal termination of Gaussian 16 at Thu Dec  7 09:12:17 2023.
