 Gaussian 16, Revision A.03,
 Gaussian 16:  ES64L-G16RevA.03 25-Dec-2016

 ----------------------------------------------------------------------
 # opt=(calcfc,ts,noeigentest) freq 6-31+g(d,p) integral=grid=ultrafine
  m062x
 ----------------------------------------------------------------------

 -----------
 "1-H-Tz-TS"
 -----------
 Symbolic Z-matrix:
 Charge =  0 Multiplicity = 1

 SCF Done:  E(RM062X) =  -506.987131898     A.U. after   14 cycles
 SCF Done:  E(RM062X) =  -507.020576013     A.U. after   13 cycles
 SCF Done:  E(RM062X) =  -507.035418033     A.U. after   13 cycles
 SCF Done:  E(RM062X) =  -507.042756351     A.U. after   13 cycles
 SCF Done:  E(RM062X) =  -507.043679444     A.U. after   13 cycles
 SCF Done:  E(RM062X) =  -507.045860668     A.U. after   13 cycles
 SCF Done:  E(RM062X) =  -507.046465885     A.U. after   13 cycles
 SCF Done:  E(RM062X) =  -507.047176838     A.U. after   13 cycles
 SCF Done:  E(RM062X) =  -507.046706192     A.U. after   13 cycles
 SCF Done:  E(RM062X) =  -507.047360208     A.U. after   13 cycles
 SCF Done:  E(RM062X) =  -507.046871929     A.U. after   13 cycles
 SCF Done:  E(RM062X) =  -507.047383709     A.U. after   13 cycles
 SCF Done:  E(RM062X) =  -507.047216883     A.U. after   13 cycles
 SCF Done:  E(RM062X) =  -507.047429208     A.U. after   12 cycles
 SCF Done:  E(RM062X) =  -507.047437624     A.U. after   11 cycles
 SCF Done:  E(RM062X) =  -507.047440531     A.U. after   10 cycles
 SCF Done:  E(RM062X) =  -507.047441555     A.U. after    9 cycles
 SCF Done:  E(RM062X) =  -507.047442061     A.U. after    9 cycles
 SCF Done:  E(RM062X) =  -507.047442180     A.U. after    9 cycles
 Optimization completed.
    -- Stationary point found.
 Normal termination of Gaussian 16 at Thu May 25 04:21:16 2023.

 ----------------------------------------------------------------------
 #N Geom=AllCheck Guess=TCheck SCRF=Check GenChk RM062X/6-31+G(d,p) Fre
 q
 ----------------------------------------------------------------------

 Structure from the checkpoint file:  "/scratch/gongke2021/1-H-Tz-TS-2/Gau-22950.chk"
 -----------
 "1-H-Tz-TS"
 -----------
 Charge =  0 Multiplicity = 1

                         Standard orientation:
 ---------------------------------------------------------------------
 Center     Atomic      Atomic             Coordinates (Angstroms)
 Number     Number       Type             X           Y           Z
 ---------------------------------------------------------------------
      1          7           0       -0.342970   -0.376980    0.006842
      2          7           0       -0.528893    0.942406    0.001450
      3          6           0       -1.846761    1.139727   -0.005489
      4          6           0       -2.432311   -0.126195   -0.003827
      5          7           0       -1.460518   -1.043475    0.003247
      6          1           0       -2.273253    2.130811   -0.013332
      7          1           0       -3.472425   -0.410295   -0.009186
      8          1           0        0.474921    1.711329    0.006900
      9          6           0        1.082175   -1.094980   -0.002519
     10          8           0        2.008746   -0.258438   -0.047918
     11          8           0        0.990151   -2.284103    0.035953
     12          8           0        1.610100    2.127617   -0.066359
     13          1           0        1.945345    2.604865    0.701740
     14          1           0        1.961486    1.117705   -0.069294
 ---------------------------------------------------------------------

 SCF Done:  E(RM062X) =  -507.047442180     A.U. after    1 cycles

 The electronic state is 1-A.
 Alpha  occ. eigenvalues --  -19.70025 -19.64782 -19.63267 -14.90802 -14.87125
 Alpha  occ. eigenvalues --  -14.83763 -10.71951 -10.63388 -10.61380  -1.28034
 Alpha  occ. eigenvalues --   -1.21496  -1.19388  -1.13322  -1.04901  -0.96028
 Alpha  occ. eigenvalues --   -0.76472  -0.75656  -0.72458  -0.69319  -0.61727
 Alpha  occ. eigenvalues --   -0.60782  -0.60111  -0.56477  -0.54860  -0.53134
 Alpha  occ. eigenvalues --   -0.52209  -0.49938  -0.44680  -0.41022  -0.40377
 Alpha  occ. eigenvalues --   -0.38846  -0.36883  -0.36566  -0.36330
 Alpha virt. eigenvalues --   -0.02131  -0.00493   0.02094   0.02665   0.03858
 Alpha virt. eigenvalues --    0.04193   0.05512   0.05806   0.06965   0.08030
 Alpha virt. eigenvalues --    0.09648   0.09818   0.10629   0.11138   0.11374

 Mulliken charges:
               1
     1  N   -0.305821
     2  N   -0.161627
     3  C   -0.132050
     4  C   -0.153748
     5  N   -0.020568
     6  H    0.200577
     7  H    0.193996
     8  H    0.520670
     9  C    0.771018
    10  O   -0.612272
    11  O   -0.421426
    12  O   -0.827967
    13  H    0.418707
    14  H    0.530511
 Sum of Mulliken charges =  -0.00000

 Dipole moment (field-independent basis, Debye):
    X=             -3.3967    Y=              6.7373    Z=              1.4203  Tot=              7.6776
 Quadrupole moment (field-independent basis, Debye-Ang):
   XX=            -47.0891   YY=            -55.2255   ZZ=            -51.6564
   XY=              3.2843   XZ=              3.2281   YZ=              4.4655

  Exact polarizability:  85.007   0.361  81.192   0.541   0.488  40.111
 Approx polarizability:  96.062   2.836 104.208   0.421   0.275  50.933

 ******    1 imaginary frequencies (negative Signs) ******

                      1                      2                      3
                      A                      A                      A
 Frequencies --   -811.6369                70.9316                93.8042
 Red. masses --      1.2331                10.3488                 5.8224
 Frc consts  --      0.4786                 0.0307                 0.0302
 IR Inten    --    875.7133                 2.0894                 1.5136

                      4                      5                      6
                      A                      A                      A
 Frequencies --    151.9968               227.8256               326.7078
 Red. masses --      6.2923                 7.7021                10.1746
 Frc consts  --      0.0857                 0.2355                 0.6399
 IR Inten    --      1.0284                 4.1571                40.7518

                      7                      8                      9
                      A                      A                      A
 Frequencies --    435.0605               486.5184               519.8406
 Red. masses --      6.3163                 1.4251                 4.3148
 Frc consts  --      0.7044                 0.1987                 0.6870
 IR Inten    --     25.1015                33.5752                45.0114

                     10                     11                     12
                      A                      A                      A
 Frequencies --    555.7199               619.3927               673.2994
 Red. masses --      1.6884                 1.7704                 3.2581
 Frc consts  --      0.3072                 0.4002                 0.8702
 IR Inten    --    236.5357               220.7249                 9.2223

                     13                     14                     15
                      A                      A                      A
 Frequencies --    689.4855               750.9693               789.7853
 Red. masses --      8.8959                12.3203                 9.4317
 Frc consts  --      2.4917                 4.0937                 3.4662
 IR Inten    --      7.8488                21.6827               610.1418

                     16                     17                     18
                      A                      A                      A
 Frequencies --    849.2449               915.2323               982.5719
 Red. masses --      1.1925                 1.3751                 6.1611
 Frc consts  --      0.5067                 0.6787                 3.5046
 IR Inten    --     55.4836                 0.0439                14.0450

                     19                     20                     21
                      A                      A                      A
 Frequencies --   1059.1768              1116.0757              1149.7275
 Red. masses --      1.7093                 1.1513                 2.5472
 Frc consts  --      1.1298                 0.8449                 1.9839
 IR Inten    --      8.9132               940.7005                74.6230

                     22                     23                     24
                      A                      A                      A
 Frequencies --   1210.8060              1275.7714              1332.1520
 Red. masses --      1.5529                 6.1650                 8.1705
 Frc consts  --      1.3414                 5.9119                 8.5430
 IR Inten    --    125.3322               439.2132               224.5464

                     25                     26                     27
                      A                      A                      A
 Frequencies --   1366.3649              1397.3786              1418.8342
 Red. masses --      5.1971                 6.3067                 1.1928
 Frc consts  --      5.7167                 7.2557                 1.4147
 IR Inten    --    670.1483                13.0193               211.6714

                     28                     29                     30
                      A                      A                      A
 Frequencies --   1499.0500              1554.4210              1595.1057
 Red. masses --      3.6220                 3.8126                 1.1762
 Frc consts  --      4.7954                 5.4276                 1.7632
 IR Inten    --     11.0567                12.0201               818.4828

                     31                     32                     33
                      A                      A                      A
 Frequencies --   1784.6007              2013.3804              2370.2841
 Red. masses --      1.1518                 6.6965                 1.0917
 Frc consts  --      2.1613                15.9936                 3.6136
 IR Inten    --    601.3166               818.6417              1737.0920

                     34                     35                     36
                      A                      A                      A
 Frequencies --   3311.0472              3329.3337              3917.2406
 Red. masses --      1.0952                 1.1061                 1.0657
 Frc consts  --      7.0740                 7.2234                 9.6348
 IR Inten    --      1.7441                 0.4502               136.8760

 - Thermochemistry -
 -------------------
 Temperature   298.150 Kelvin.  Pressure   1.00000 Atm.
 Atom     1 has atomic number  7 and mass  14.00307

 Molecular mass:   131.03309 amu.
 Principal axes and moments of inertia in atomic units:
                           1         2         3
     Eigenvalues --   830.359861104.331171930.34179
           X            0.99824   0.05922   0.00426
           Y           -0.05925   0.99821   0.00767
           Z           -0.00380  -0.00791   0.99996
 This molecule is an asymmetric top.
 Rotational symmetry number  1.
 Warning -- assumption of classical behavior for rotation
           may cause significant error
 Rotational temperatures (Kelvin)      0.10431     0.07843     0.04487
 Rotational constants (GHZ):           2.17344     1.63424     0.93493
    1 imaginary frequencies ignored.
 Zero-point vibrational energy     250253.6 (Joules/Mol)
                                   59.81205 (Kcal/Mol)
 Warning -- explicit consideration of  10 degrees of freedom as
           vibrations may cause significant error
 Vibrational temperatures:    102.05   134.96   218.69   327.79   470.06
          (Kelvin)            625.96   699.99   747.93   799.56   891.17
                              968.73   992.02  1080.48  1136.32  1221.87
                             1316.82  1413.70  1523.92  1605.78  1654.20
                             1742.08  1835.55  1916.67  1965.89  2010.52
                             2041.39  2156.80  2236.47  2295.00  2567.64
                             2896.81  3410.31  4763.86  4790.17  5636.04

 Zero-point correction=                           0.095317 (Hartree/Particle)
 Thermal correction to Energy=                    0.103010
 Thermal correction to Enthalpy=                  0.103955
 Thermal correction to Gibbs Free Energy=         0.062143
 Sum of electronic and zero-point Energies=           -506.952126
 Sum of electronic and thermal Energies=              -506.944432
 Sum of electronic and thermal Enthalpies=            -506.943488
 Sum of electronic and thermal Free Energies=         -506.985299

                     E (Thermal)             CV                S
                      KCal/Mol        Cal/Mol-Kelvin    Cal/Mol-Kelvin
 Total                   64.640             27.656             87.999
 Electronic               0.000              0.000              0.000
 Translational            0.889              2.981             40.524
 Rotational               0.889              2.981             28.961
 Vibrational             62.863             21.694             18.515
 Vibration     1          0.598              1.968              4.127
 Vibration     2          0.603              1.954              3.579
 Vibration     3          0.619              1.900              2.647
 Vibration     4          0.651              1.799              1.896
 Vibration     5          0.710              1.622              1.276
 Vibration     6          0.796              1.394              0.842
 Vibration     7          0.843              1.280              0.693
 Vibration     8          0.875              1.206              0.610
 Vibration     9          0.911              1.127              0.532
 Vibration    10          0.979              0.991              0.417

                           ! Non-Optimized Parameters !
 Normal termination of Gaussian 16 at Thu May 25 04:22:10 2023.
