 Gaussian 16, Revision A.03,
 Gaussian 16:  ES64L-G16RevA.03 25-Dec-2016

 ----------------------------
 # opt freq 6-31+g(d,p) m062x
 ----------------------------

 ----------
 "Sketch 2"
 ----------
 Symbolic Z-matrix:
 Charge = -1 Multiplicity = 2

 SCF Done:  E(UM062X) =  -430.652434961     A.U. after   19 cycles
 SCF Done:  E(UM062X) =  -430.664329543     A.U. after   16 cycles
 SCF Done:  E(UM062X) =  -430.665820707     A.U. after   16 cycles
 SCF Done:  E(UM062X) =  -430.665898169     A.U. after   13 cycles
 SCF Done:  E(UM062X) =  -430.665925204     A.U. after   12 cycles
 SCF Done:  E(UM062X) =  -430.665926701     A.U. after   12 cycles
 Optimization completed.
    -- Stationary point found.
 Normal termination of Gaussian 16 at Sat May  6 04:51:55 2023.

 ----------------------------------------------------------------------
 #N Geom=AllCheck Guess=TCheck SCRF=Check GenChk UM062X/6-31+G(d,p) Fre
 q
 ----------------------------------------------------------------------

 Structure from the checkpoint file:  "/scratch/gongke2021/1-H-Tz-1-eletron/Gau-27586.chk"
 ----------
 "Sketch 2"
 ----------
 Charge = -1 Multiplicity = 2

                         Standard orientation:
 ---------------------------------------------------------------------
 Center     Atomic      Atomic             Coordinates (Angstroms)
 Number     Number       Type             X           Y           Z
 ---------------------------------------------------------------------
      1          7           0        0.016044   -0.099175    0.000229
      2          7           0        0.686621    1.121372    0.000247
      3          6           0        1.987333    0.724726    0.000078
      4          6           0        2.059382   -0.658735    0.000040
      5          7           0        0.823824   -1.214463    0.000065
      6          1           0        2.782247    1.457220    0.000040
      7          1           0        2.935325   -1.293329   -0.000055
      8          1           0       -1.129302    1.738481   -0.000128
      9          6           0       -1.348819   -0.135436    0.000193
     10          8           0       -1.885702    1.120930   -0.000331
     11          8           0       -2.046931   -1.138410   -0.000357
 ---------------------------------------------------------------------

 SCF Done:  E(UM062X) =  -430.665926701     A.U. after    1 cycles

 The electronic state is 2-A.
 Alpha  occ. eigenvalues --  -19.51712 -19.45001 -14.68979 -14.61500 -14.60770
 Alpha  occ. eigenvalues --  -10.52885 -10.41144 -10.40886  -1.07228  -1.00322
 Alpha  occ. eigenvalues --   -0.96363  -0.80615  -0.77302  -0.59682  -0.52764
 Alpha  occ. eigenvalues --   -0.51163  -0.45813  -0.40630  -0.37661  -0.36979
 Alpha  occ. eigenvalues --   -0.33392  -0.32511  -0.31099  -0.23706  -0.23299
 Alpha  occ. eigenvalues --   -0.20089  -0.19402  -0.18750  -0.17431   0.00887
 Alpha virt. eigenvalues --    0.13772   0.14466   0.16571   0.18209   0.19106
 Alpha virt. eigenvalues --    0.19273   0.20432   0.21201   0.22111   0.22869
 Alpha virt. eigenvalues --    0.25234   0.26766   0.27663   0.28219   0.28551

  Beta  occ. eigenvalues --  -19.51688 -19.44768 -14.68893 -14.60997 -14.60258
  Beta  occ. eigenvalues --  -10.52803 -10.41108 -10.40904  -1.06785  -0.99582
  Beta  occ. eigenvalues --   -0.95810  -0.79043  -0.76553  -0.58891  -0.52321
  Beta  occ. eigenvalues --   -0.50928  -0.44821  -0.38943  -0.37290  -0.36656
  Beta  occ. eigenvalues --   -0.32911  -0.30976  -0.30793  -0.22621  -0.21683
  Beta  occ. eigenvalues --   -0.19283  -0.17856  -0.15381  -0.14722
  Beta virt. eigenvalues --    0.13079   0.14344   0.15928   0.16019   0.17553
  Beta virt. eigenvalues --    0.18553   0.18791   0.20070   0.20624   0.21310
  Beta virt. eigenvalues --    0.22028   0.23747   0.26946   0.27878   0.28018

 Mulliken charges and spin densities:
               1          2
     1  N   -0.207170  -0.027741
     2  N   -0.346342   0.342127
     3  C   -0.244389   0.088380
     4  C   -0.172343  -0.006473
     5  N   -0.206748   0.376766
     6  H    0.115584  -0.004067
     7  H    0.114263  -0.000518
     8  H    0.399640  -0.002637
     9  C    0.659917   0.116219
    10  O   -0.537119   0.008569
    11  O   -0.575295   0.109375
 Sum of Mulliken charges =  -1.00000   1.00000

 Dipole moment (field-independent basis, Debye):
    X=              3.1607    Y=              2.6863    Z=              0.0010  Tot=              4.1481
 Quadrupole moment (field-independent basis, Debye-Ang):
   XX=            -64.1681   YY=            -58.3622   ZZ=            -50.7738
   XY=             -3.4333   XZ=             -0.0047   YZ=             -0.0010

  Exact polarizability: 109.912   5.189  79.442   0.008   0.002  49.479
 Approx polarizability: 112.380   7.400 101.579   0.005   0.004  56.553

                      1                      2                      3
                      A                      A                      A
 Frequencies --    117.7413               152.5726               258.9300
 Red. masses --      6.7367                 8.2764                 6.7097
 Frc consts  --      0.0550                 0.1135                 0.2650
 IR Inten    --      1.8677                 1.3199                 7.9212

                      4                      5                      6
                      A                      A                      A
 Frequencies --    452.5172               459.8307               569.9129
 Red. masses --     12.0983                 7.8038                 7.8516
 Frc consts  --      1.4596                 0.9722                 1.5025
 IR Inten    --      1.5554                 2.5580                20.6696

                      7                      8                      9
                      A                      A                      A
 Frequencies --    599.9393               628.7803               660.7454
 Red. masses --      3.8848                 1.1800                10.9479
 Frc consts  --      0.8238                 0.2749                 2.8161
 IR Inten    --      5.7458                62.9621                33.2929

                     10                     11                     12
                      A                      A                      A
 Frequencies --    721.7769               734.3778               813.2026
 Red. masses --      1.1854                10.6906                 1.2357
 Frc consts  --      0.3638                 3.3970                 0.4814
 IR Inten    --     88.6051                 4.6269                 5.1583

                     13                     14                     15
                      A                      A                      A
 Frequencies --    871.5359               954.8543              1105.1219
 Red. masses --      6.2166                 7.7084                 1.4055
 Frc consts  --      2.7821                 4.1409                 1.0114
 IR Inten    --     10.0818                10.9903                 8.2430

                     16                     17                     18
                      A                      A                      A
 Frequencies --   1114.0795              1124.3466              1216.4128
 Red. masses --      2.4749                 2.9961                11.3495
 Frc consts  --      1.8099                 2.2316                 9.8944
 IR Inten    --    146.2519               102.6379                 4.5441

                     19                     20                     21
                      A                      A                      A
 Frequencies --   1290.1192              1357.6212              1404.6651
 Red. masses --      6.5275                 1.5642                 2.4640
 Frc consts  --      6.4011                 1.6986                 2.8644
 IR Inten    --     22.2343               131.2151                53.8926

                     22                     23                     24
                      A                      A                      A
 Frequencies --   1482.5888              1518.6247              1829.8763
 Red. masses --      5.2011                 4.8289                 8.8075
 Frc consts  --      6.7357                 6.5614                17.3759
 IR Inten    --    285.7954                45.3856               967.1430

                     25                     26                     27
                      A                      A                      A
 Frequencies --   3258.7434              3284.4986              3660.3336
 Red. masses --      1.0870                 1.1022                 1.0646
 Frc consts  --      6.8011                 7.0058                 8.4036
 IR Inten    --      8.5414                33.3406                94.3240

 - Thermochemistry -
 -------------------
 Temperature   298.150 Kelvin.  Pressure   1.00000 Atm.
 Atom     1 has atomic number  7 and mass  14.00307

 Molecular mass:   113.02253 amu.
 Principal axes and moments of inertia in atomic units:
                           1         2         3
     Eigenvalues --   349.18571 991.771061340.95675
           X            0.99996  -0.00897  -0.00009
           Y            0.00897   0.99996  -0.00003
           Z            0.00009   0.00003   1.00000
 This molecule is an asymmetric top.
 Rotational symmetry number  1.
 Rotational temperatures (Kelvin)      0.24805     0.08733     0.06459
 Rotational constants (GHZ):           5.16843     1.81972     1.34586
 Zero-point vibrational energy     189271.6 (Joules/Mol)
                                   45.23701 (Kcal/Mol)
 Warning -- explicit consideration of   7 degrees of freedom as
           vibrations may cause significant error
 Vibrational temperatures:    169.40   219.52   372.54   651.07   661.59
          (Kelvin)            819.98   863.18   904.67   950.67  1038.48
                             1056.61  1170.02  1253.95  1373.82  1590.02
                             1602.91  1617.68  1750.15  1856.19  1953.31
                             2021.00  2133.11  2184.96  2632.78  4688.60
                             4725.66  5266.40

 Zero-point correction=                           0.072090 (Hartree/Particle)
 Thermal correction to Energy=                    0.078373
 Thermal correction to Enthalpy=                  0.079317
 Thermal correction to Gibbs Free Energy=         0.040770
 Sum of electronic and zero-point Energies=           -430.593837
 Sum of electronic and thermal Energies=              -430.587554
 Sum of electronic and thermal Enthalpies=            -430.586610
 Sum of electronic and thermal Free Energies=         -430.625157

                     E (Thermal)             CV                S
                      KCal/Mol        Cal/Mol-Kelvin    Cal/Mol-Kelvin
 Total                   49.180             22.945             81.129
 Electronic               0.000              0.000              1.377
 Translational            0.889              2.981             40.083
 Rotational               0.889              2.981             27.631
 Vibrational             47.402             16.984             12.037
 Vibration     1          0.608              1.935              3.137
 Vibration     2          0.619              1.900              2.640
 Vibration     3          0.668              1.748              1.669
 Vibration     4          0.811              1.355              0.788
 Vibration     5          0.818              1.339              0.767
 Vibration     6          0.926              1.096              0.504
 Vibration     7          0.958              1.032              0.450

 Optimization completed.
    -- Stationary point found.
 Normal termination of Gaussian 16 at Sat May  6 04:53:45 2023.
