 Gaussian 16, Revision A.03,
 Gaussian 16:  ES64L-G16RevA.03 25-Dec-2016

 ----------------------------
 # opt freq 6-31+g(d,p) m062x
 ----------------------------

 ----------
 2-H-1-H-Tz
 ----------
 Symbolic Z-matrix:
 Charge =  1 Multiplicity = 1

 SCF Done:  E(RM062X) =  -430.923210681     A.U. after   14 cycles
 SCF Done:  E(RM062X) =  -430.958980802     A.U. after   12 cycles
 SCF Done:  E(RM062X) =  -430.931727592     A.U. after   14 cycles
 SCF Done:  E(RM062X) =  -430.978630127     A.U. after   13 cycles
 SCF Done:  E(RM062X) =  -430.981452726     A.U. after   12 cycles
 SCF Done:  E(RM062X) =  -430.982029682     A.U. after   11 cycles
 SCF Done:  E(RM062X) =  -430.982061506     A.U. after   12 cycles
 SCF Done:  E(RM062X) =  -430.982098400     A.U. after   12 cycles
 SCF Done:  E(RM062X) =  -430.982160384     A.U. after   11 cycles
 SCF Done:  E(RM062X) =  -430.982163144     A.U. after   10 cycles
 SCF Done:  E(RM062X) =  -430.982163363     A.U. after    9 cycles
 SCF Done:  E(RM062X) =  -430.982163436     A.U. after    9 cycles
 Optimization completed.
    -- Stationary point found.
 Normal termination of Gaussian 16 at Sun Jul 16 13:06:05 2023.

 ----------------------------------------------------------------------
 #N Geom=AllCheck Guess=TCheck SCRF=Check GenChk RM062X/6-31+G(d,p) Fre
 q
 ----------------------------------------------------------------------

 Structure from the checkpoint file:  "/scratch/gongke2021/2-H-1-H-Tz-PC/Gau-4375.chk"
 ----------
 2-H-1-H-Tz
 ----------
 Charge =  1 Multiplicity = 1

                         Standard orientation:
 ---------------------------------------------------------------------
 Center     Atomic      Atomic             Coordinates (Angstroms)
 Number     Number       Type             X           Y           Z
 ---------------------------------------------------------------------
      1          7           0       -0.676501   -1.070645    0.000477
      2          7           0       -1.928264   -0.719148    0.000289
      3          6           0       -2.110627    0.627758   -0.000288
      4          6           0       -0.842228    1.148599   -0.000474
      5          7           0       -0.027261    0.060529    0.000023
      6          1           0       -3.085702    1.091409   -0.000532
      7          1           0       -0.453304    2.157107   -0.000910
      8          1           0       -2.635748   -1.452237    0.000563
      9          1           0        1.420057   -1.827119   -0.000413
     10          6           0        1.475785    0.106638    0.000073
     11          8           0        2.031540   -1.071562   -0.000670
     12          8           0        1.973623    1.176277    0.000658
 ---------------------------------------------------------------------

 SCF Done:  E(RM062X) =  -430.982163436     A.U. after    1 cycles

 The electronic state is 1-A.
 Alpha  occ. eigenvalues --  -19.89987 -19.84924 -15.11867 -15.11404 -15.10175
 Alpha  occ. eigenvalues --  -10.93771 -10.83962 -10.83544  -1.51625  -1.45330
 Alpha  occ. eigenvalues --   -1.37376  -1.29350  -1.17846  -1.04068  -0.98990
 Alpha  occ. eigenvalues --   -0.92671  -0.89819  -0.86152  -0.83121  -0.77112
 Alpha  occ. eigenvalues --   -0.75413  -0.74639  -0.73964  -0.67668  -0.66520
 Alpha  occ. eigenvalues --   -0.63860  -0.59480  -0.58532  -0.56977
 Alpha virt. eigenvalues --   -0.23680  -0.17009  -0.15123  -0.12399  -0.10759
 Alpha virt. eigenvalues --   -0.10588  -0.09368  -0.08952  -0.08640  -0.07525
 Alpha virt. eigenvalues --   -0.05287  -0.03462  -0.03412  -0.03211  -0.02130

 Mulliken charges:
               1
     1  N    0.063788
     2  N   -0.277660
     3  C   -0.052276
     4  C   -0.095384
     5  N   -0.095092
     6  H    0.279957
     7  H    0.293115
     8  H    0.418751
     9  H    0.431966
    10  C    0.761420
    11  O   -0.409426
    12  O   -0.319159
 Sum of Mulliken charges =   1.00000

 Dipole moment (field-independent basis, Debye):
    X=             -7.7145    Y=             -1.6110    Z=             -0.0012  Tot=              7.8809
 Quadrupole moment (field-independent basis, Debye-Ang):
   XX=            -25.1307   YY=            -32.2765   ZZ=            -43.6190
   XY=             -2.1699   XZ=             -0.0011   YZ=             -0.0051

  Exact polarizability:  68.262   1.362  61.680   0.002  -0.002  30.137
 Approx polarizability:  80.084   3.671  88.562   0.002  -0.004  38.784

                      1                      2                      3
                      A                      A                      A
 Frequencies --     91.2182               178.6041               223.8965
 Red. masses --      5.9882                 6.4760                 5.8196
 Frc consts  --      0.0294                 0.1217                 0.1719
 IR Inten    --      7.6618                 0.0594                11.5584

                      4                      5                      6
                      A                      A                      A
 Frequencies --    411.6987               446.1528               533.2021
 Red. masses --      8.2676                 1.1582                 6.0476
 Frc consts  --      0.8256                 0.1358                 1.0130
 IR Inten    --      4.7488               152.4650                 8.5031

                      7                      8                      9
                      A                      A                      A
 Frequencies --    633.0372               694.0753               709.0494
 Red. masses --      3.3948                 8.5807                 7.2886
 Frc consts  --      0.8015                 2.4355                 2.1590
 IR Inten    --      1.1275                 0.0593                78.7492

                     10                     11                     12
                      A                      A                      A
 Frequencies --    754.8508               801.5006               845.1593
 Red. masses --      6.8217                 1.1600                 1.2375
 Frc consts  --      2.2902                 0.4391                 0.5208
 IR Inten    --     20.1788               147.0801                11.3904

                     13                     14                     15
                      A                      A                      A
 Frequencies --    938.5801               980.7067              1046.0028
 Red. masses --      1.3729                 5.6607                 2.4946
 Frc consts  --      0.7126                 3.2077                 1.6081
 IR Inten    --      2.0172                 3.0660                 7.8992

                     16                     17                     18
                      A                      A                      A
 Frequencies --   1100.5157              1141.1853              1207.0329
 Red. masses --      1.3429                 2.0748                 1.4576
 Frc consts  --      0.9582                 1.5920                 1.2512
 IR Inten    --     52.4175                11.7096                60.2049

                     19                     20                     21
                      A                      A                      A
 Frequencies --   1259.1303              1304.8960              1332.1169
 Red. masses --      2.0395                 4.3178                 5.9904
 Frc consts  --      1.9051                 4.3318                 6.2631
 IR Inten    --     66.8905               258.5423               449.7373

                     22                     23                     24
                      A                      A                      A
 Frequencies --   1447.5967              1457.9607              1509.8267
 Red. masses --      4.6563                 3.9179                 3.7807
 Frc consts  --      5.7489                 4.9068                 5.0778
 IR Inten    --      7.1873                36.1116                13.4013

                     25                     26                     27
                      A                      A                      A
 Frequencies --   1618.0926              2034.6115              3309.8787
 Red. masses --      3.3031                11.8170                 1.0983
 Frc consts  --      5.0955                28.8218                 7.0890
 IR Inten    --     25.2445               372.6711                58.0304

                     28                     29                     30
                      A                      A                      A
 Frequencies --   3326.6571              3586.0271              3794.5900
 Red. masses --      1.1126                 1.0869                 1.0674
 Frc consts  --      7.2544                 8.2349                 9.0557
 IR Inten    --     56.3806               282.4735               180.8255

 - Thermochemistry -
 -------------------
 Temperature   298.150 Kelvin.  Pressure   1.00000 Atm.
 Atom     1 has atomic number  7 and mass  14.00307

 Molecular mass:   114.03035 amu.
 Principal axes and moments of inertia in atomic units:
                           1         2         3
     Eigenvalues --   342.359051048.460741390.81962
           X            0.99988  -0.01564   0.00000
           Y            0.01564   0.99988  -0.00003
           Z            0.00000   0.00003   1.00000
 This molecule is an asymmetric top.
 Rotational symmetry number  1.
 Rotational temperatures (Kelvin)      0.25299     0.08261     0.06228
 Rotational constants (GHZ):           5.27149     1.72132     1.29761
 Zero-point vibrational energy     231584.2 (Joules/Mol)
                                   55.34995 (Kcal/Mol)
 Warning -- explicit consideration of   6 degrees of freedom as
           vibrations may cause significant error
 Vibrational temperatures:    131.24   256.97   322.14   592.34   641.91
          (Kelvin)            767.16   910.80   998.62  1020.16  1086.06
                             1153.18  1216.00  1350.41  1411.02  1504.96
                             1583.40  1641.91  1736.65  1811.61  1877.45
                             1916.62  2082.77  2097.68  2172.30  2328.07
                             2927.35  4762.18  4786.32  5159.49  5459.57

 Zero-point correction=                           0.088206 (Hartree/Particle)
 Thermal correction to Energy=                    0.094512
 Thermal correction to Enthalpy=                  0.095457
 Thermal correction to Gibbs Free Energy=         0.057331
 Sum of electronic and zero-point Energies=           -430.893958
 Sum of electronic and thermal Energies=              -430.887651
 Sum of electronic and thermal Enthalpies=            -430.886707
 Sum of electronic and thermal Free Energies=         -430.924832

                     E (Thermal)             CV                S
                      KCal/Mol        Cal/Mol-Kelvin    Cal/Mol-Kelvin
 Total                   59.307             22.813             80.242
 Electronic               0.000              0.000              0.000
 Translational            0.889              2.981             40.109
 Rotational               0.889              2.981             27.703
 Vibrational             57.530             16.851             12.429
 Vibration     1          0.602              1.955              3.634
 Vibration     2          0.629              1.869              2.343
 Vibration     3          0.649              1.805              1.927
 Vibration     4          0.776              1.445              0.921
 Vibration     5          0.805              1.369              0.807
 Vibration     6          0.888              1.177              0.580

                           ! Non-Optimized Parameters !
 Normal termination of Gaussian 16 at Sun Jul 16 13:07:35 2023.
