 Gaussian 16, Revision A.03,
 Gaussian 16:  ES64L-G16RevA.03 25-Dec-2016

 ----------------------------
 # opt freq 6-31+g(d,p) m062x
 ----------------------------

 ----
 test
 ----
 Symbolic Z-matrix:
 Charge =  0 Multiplicity = 1

 SCF Done:  E(RM062X) =  -583.488736706     A.U. after   14 cycles
 SCF Done:  E(RM062X) =  -583.367519106     A.U. after   16 cycles
 SCF Done:  E(RM062X) =  -583.488466521     A.U. after   13 cycles
 SCF Done:  E(RM062X) =  -583.488888661     A.U. after   11 cycles
 SCF Done:  E(RM062X) =  -583.489201754     A.U. after   12 cycles
 SCF Done:  E(RM062X) =  -583.489873521     A.U. after   12 cycles
 SCF Done:  E(RM062X) =  -583.490519051     A.U. after   13 cycles
 SCF Done:  E(RM062X) =  -583.490904119     A.U. after   15 cycles
 SCF Done:  E(RM062X) =  -583.491729776     A.U. after   13 cycles
 SCF Done:  E(RM062X) =  -583.492434223     A.U. after   14 cycles
 SCF Done:  E(RM062X) =  -583.494261180     A.U. after   11 cycles
 SCF Done:  E(RM062X) =  -583.494274472     A.U. after   11 cycles
 SCF Done:  E(RM062X) =  -583.494280263     A.U. after   11 cycles
 SCF Done:  E(RM062X) =  -583.494283847     A.U. after    9 cycles
 SCF Done:  E(RM062X) =  -583.494288232     A.U. after   10 cycles
 SCF Done:  E(RM062X) =  -583.494292306     A.U. after   10 cycles
 SCF Done:  E(RM062X) =  -583.494293589     A.U. after    9 cycles
 SCF Done:  E(RM062X) =  -583.494294261     A.U. after    9 cycles
 SCF Done:  E(RM062X) =  -583.494294460     A.U. after    9 cycles
 Optimization completed.
    -- Stationary point found.
 Normal termination of Gaussian 16 at Fri Jul  7 14:51:37 2023.

 ----------------------------------------------------------------------
 #N Geom=AllCheck Guess=TCheck SCRF=Check GenChk RM062X/6-31+G(d,p) Fre
 q
 ----------------------------------------------------------------------

 Structure from the checkpoint file:  "/scratch/gongke2021/RC-2-N-test/Gau-8033.chk"
 ----
 test
 ----
 Charge =  0 Multiplicity = 1

                         Standard orientation:
 ---------------------------------------------------------------------
 Center     Atomic      Atomic             Coordinates (Angstroms)
 Number     Number       Type             X           Y           Z
 ---------------------------------------------------------------------
      1          7           0        0.363565   -0.299114    0.134115
      2          7           0        1.455025   -1.043997    0.002877
      3          6           0        1.136827   -2.350018   -0.089184
      4          6           0       -0.238480   -2.365206   -0.003772
      5          7           0       -0.669109   -1.084947    0.130457
      6          1           0        1.875833   -3.125956   -0.204664
      7          1           0       -0.925889   -3.195329   -0.031622
      8          1           0        2.357330   -0.548145   -0.030751
      9          6           0       -2.715247    0.760933   -0.048066
     10          8           0       -3.582272   -0.009770    0.008348
     11          8           0       -1.894627    1.586055   -0.112681
     12          8           0        1.091016    2.456039    0.123078
     13          1           0        0.534008    1.655990    0.180813
     14          1           0        0.595026    3.098589   -0.392471
     15          8           0        3.349581    0.959988   -0.131852
     16          1           0        2.670817    1.668908   -0.124889
     17          1           0        4.038322    1.229591    0.482426
 ---------------------------------------------------------------------

 SCF Done:  E(RM062X) =  -583.494294460     A.U. after    1 cycles

 The electronic state is 1-A.
 Alpha  occ. eigenvalues --  -19.71694 -19.71582 -19.65250 -19.64451 -14.85716
 Alpha  occ. eigenvalues --  -14.83935 -14.80059 -10.73911 -10.60805 -10.58485
 Alpha  occ. eigenvalues --   -1.27851  -1.23424  -1.22810  -1.14027  -1.12450
 Alpha  occ. eigenvalues --   -1.01886  -0.91768  -0.73669  -0.71746  -0.66010
 Alpha  occ. eigenvalues --   -0.64624  -0.62206  -0.60235  -0.59289  -0.58886
 Alpha  occ. eigenvalues --   -0.58783  -0.55926  -0.53955  -0.52902  -0.49102
 Alpha  occ. eigenvalues --   -0.46088  -0.43072  -0.43026  -0.41880  -0.40510
 Alpha  occ. eigenvalues --   -0.39624  -0.37455  -0.36012  -0.33113
 Alpha virt. eigenvalues --    0.01051   0.01902   0.02438   0.03511   0.04775
 Alpha virt. eigenvalues --    0.04964   0.05657   0.06062   0.07184   0.07631
 Alpha virt. eigenvalues --    0.08892   0.09369   0.09587   0.09797   0.11706

 Mulliken charges:
               1
     1  N   -0.122667
     2  N   -0.212500
     3  C   -0.106431
     4  C   -0.198434
     5  N   -0.222418
     6  H    0.195434
     7  H    0.180287
     8  H    0.436010
     9  C    0.776124
    10  O   -0.353038
    11  O   -0.423486
    12  O   -0.795398
    13  H    0.451212
    14  H    0.388581
    15  O   -0.839162
    16  H    0.460665
    17  H    0.385223
 Sum of Mulliken charges =  -0.00000

 Dipole moment (field-independent basis, Debye):
    X=              2.4847    Y=             -1.2540    Z=             -0.1383  Tot=              2.7866
 Quadrupole moment (field-independent basis, Debye-Ang):
   XX=            -55.4023   YY=            -47.4481   ZZ=            -59.9511
   XY=             -4.6842   XZ=              4.3744   YZ=             -1.0546

  Exact polarizability:  87.138   6.482  85.870  -0.990   0.811  47.940
 Approx polarizability: 104.977  11.896 103.100  -1.598   0.987  58.638

                      1                      2                      3
                      A                      A                      A
 Frequencies --     23.7161                41.9914                52.0726
 Red. masses --      8.5306                 9.2477                 5.4040
 Frc consts  --      0.0028                 0.0096                 0.0086
 IR Inten    --      0.7579                 1.9186                 6.5933

                      4                      5                      6
                      A                      A                      A
 Frequencies --     60.8796                91.1177                92.3326
 Red. masses --      7.5893                 6.0355                 4.6880
 Frc consts  --      0.0166                 0.0295                 0.0235
 IR Inten    --      1.0323                 4.6873                 2.2720

                      7                      8                      9
                      A                      A                      A
 Frequencies --    131.7290               143.8452               177.2479
 Red. masses --      7.8393                10.1207                 5.0128
 Frc consts  --      0.0801                 0.1234                 0.0928
 IR Inten    --      7.8949                 2.3383                26.1732

                     10                     11                     12
                      A                      A                      A
 Frequencies --    198.4452               211.2071               244.3589
 Red. masses --      5.5957                 1.2585                 2.5198
 Frc consts  --      0.1298                 0.0331                 0.0886
 IR Inten    --      9.0307                90.6579                71.2036

                     13                     14                     15
                      A                      A                      A
 Frequencies --    265.6557               362.2426               443.0001
 Red. masses --      1.3443                 1.1154                 1.0849
 Frc consts  --      0.0559                 0.0862                 0.1254
 IR Inten    --     71.8272                50.6578               114.3952

                     16                     17                     18
                      A                      A                      A
 Frequencies --    643.0729               652.6911               662.6621
 Red. masses --      3.1282                 3.0620                 1.7641
 Frc consts  --      0.7622                 0.7685                 0.4564
 IR Inten    --     49.4597                85.3469               121.0211

                     19                     20                     21
                      A                      A                      A
 Frequencies --    675.3995               732.0686               809.4024
 Red. masses --      7.9259                 9.2020                 1.2102
 Frc consts  --      2.1302                 2.9056                 0.4671
 IR Inten    --     73.5964                 1.7402                67.3876

                     22                     23                     24
                      A                      A                      A
 Frequencies --    831.9298               890.7637               938.2340
 Red. masses --      1.0591                 1.3469                 1.0734
 Frc consts  --      0.4319                 0.6297                 0.5567
 IR Inten    --    215.6975                 3.5080               104.7464

                     25                     26                     27
                      A                      A                      A
 Frequencies --    974.1895               989.6198              1109.2591
 Red. masses --      6.8190                 2.5912                 1.8676
 Frc consts  --      3.8129                 1.4952                 1.3539
 IR Inten    --      2.1922                10.6509                40.0527

                     28                     29                     30
                      A                      A                      A
 Frequencies --   1138.7723              1226.3515              1240.1165
 Red. masses --      1.3952                 4.1005                 3.6007
 Frc consts  --      1.0660                 3.6334                 3.2626
 IR Inten    --     28.1223                24.3436                22.6230

                     31                     32                     33
                      A                      A                      A
 Frequencies --   1363.9159              1408.0632              1433.0264
 Red. masses --      9.6546                15.9712                 2.2168
 Frc consts  --     10.5818                18.6566                 2.6821
 IR Inten    --     23.5061                 1.9937                11.4418

                     34                     35                     36
                      A                      A                      A
 Frequencies --   1515.4865              1595.6635              1621.7101
 Red. masses --      3.8924                 2.2728                 1.0816
 Frc consts  --      5.2671                 3.4095                 1.6760
 IR Inten    --      0.0944                34.2767               122.2870

                     37                     38                     39
                      A                      A                      A
 Frequencies --   1658.6611              2455.2852              3316.0177
 Red. masses --      1.0734                12.7968                 1.0933
 Frc consts  --      1.7400                45.4522                 7.0829
 IR Inten    --     69.1607               720.5219                 3.7252

                     40                     41                     42
                      A                      A                      A
 Frequencies --   3322.6369              3335.8193              3550.6624
 Red. masses --      1.0934                 1.1092                 1.0624
 Frc consts  --      7.1121                 7.2720                 7.8918
 IR Inten    --    762.0514                40.2482               632.3546

                     43                     44                     45
                      A                      A                      A
 Frequencies --   3674.9941              3960.6129              3963.2815
 Red. masses --      1.0582                 1.0688                 1.0704
 Frc consts  --      8.4201                 9.8777                 9.9061
 IR Inten    --    710.5060               119.4384               125.0162

 - Thermochemistry -
 -------------------
 Temperature   298.150 Kelvin.  Pressure   1.00000 Atm.
 Atom     1 has atomic number  7 and mass  14.00307

 Molecular mass:   149.04366 amu.
 Principal axes and moments of inertia in atomic units:
                           1         2         3
     Eigenvalues --  1298.459182282.302183567.77042
           X            0.99958   0.02893   0.00163
           Y           -0.02894   0.99958   0.00066
           Z           -0.00161  -0.00070   1.00000
 This molecule is an asymmetric top.
 Rotational symmetry number  1.
 Warning -- assumption of classical behavior for rotation
           may cause significant error
 Rotational temperatures (Kelvin)      0.06671     0.03795     0.02428
 Rotational constants (GHZ):           1.38991     0.79075     0.50585
 Zero-point vibrational energy     324368.7 (Joules/Mol)
                                   77.52598 (Kcal/Mol)
 Warning -- explicit consideration of  15 degrees of freedom as
           vibrations may cause significant error
 Vibrational temperatures:     34.12    60.42    74.92    87.59   131.10
          (Kelvin)            132.85   189.53   206.96   255.02   285.52
                              303.88   351.58   382.22   521.19   637.38
                              925.24   939.08   953.42   971.75  1053.28
                             1164.55  1196.96  1281.61  1349.91  1401.64
                             1423.84  1595.98  1638.44  1764.45  1784.25
                             1962.37  2025.89  2061.81  2180.45  2295.80
                             2333.28  2386.44  3532.61  4771.01  4780.53
                             4799.50  5108.61  5287.50  5698.44  5702.28

 Zero-point correction=                           0.123546 (Hartree/Particle)
 Thermal correction to Energy=                    0.136936
 Thermal correction to Enthalpy=                  0.137880
 Thermal correction to Gibbs Free Energy=         0.080922
 Sum of electronic and zero-point Energies=           -583.370749
 Sum of electronic and thermal Energies=              -583.357358
 Sum of electronic and thermal Enthalpies=            -583.356414
 Sum of electronic and thermal Free Energies=         -583.413373

                     E (Thermal)             CV                S
                      KCal/Mol        Cal/Mol-Kelvin    Cal/Mol-Kelvin
 Total                   85.929             42.418            119.879
 Electronic               0.000              0.000              0.000
 Translational            0.889              2.981             40.908
 Rotational               0.889              2.981             30.737
 Vibrational             84.151             36.456             48.235
 Vibration     1          0.593              1.985              6.296
 Vibration     2          0.595              1.980              5.163
 Vibration     3          0.596              1.977              4.737
 Vibration     4          0.597              1.973              4.428
 Vibration     5          0.602              1.955              3.636
 Vibration     6          0.602              1.955              3.610
 Vibration     7          0.612              1.922              2.921
 Vibration     8          0.616              1.909              2.752
 Vibration     9          0.628              1.870              2.357
 Vibration    10          0.637              1.842              2.147
 Vibration    11          0.643              1.824              2.033
 Vibration    12          0.660              1.772              1.771
 Vibration    13          0.671              1.736              1.624
 Vibration    14          0.736              1.550              1.112
 Vibration    15          0.803              1.376              0.817

                           ! Non-Optimized Parameters !
 Normal termination of Gaussian 16 at Fri Jul  7 14:53:44 2023.
