 Gaussian 16, Revision C.01,
 Gaussian 16:  ES64L-G16RevC.01  3-Jul-2019

 ----------------------------------------------------------------------
 # opt=(calcfc,ts,noeigentest) freq 6-31+g(d,p) integral=grid=ultrafine
  m062x
 ----------------------------------------------------------------------

 --
 TS
 --
 Symbolic Z-matrix:
 Charge = -1 Multiplicity = 2

 SCF Done:  E(UM062X) =  -507.056752172     A.U. after   18 cycles
 SCF Done:  E(UM062X) =  -507.064435065     A.U. after   17 cycles
 SCF Done:  E(UM062X) =  -507.068586753     A.U. after   16 cycles
 SCF Done:  E(UM062X) =  -507.068610414     A.U. after   19 cycles
 SCF Done:  E(UM062X) =  -507.069707103     A.U. after   16 cycles
 SCF Done:  E(UM062X) =  -507.068802492     A.U. after   17 cycles
 SCF Done:  E(UM062X) =  -507.070040818     A.U. after   17 cycles
 SCF Done:  E(UM062X) =  -507.069772410     A.U. after   16 cycles
 SCF Done:  E(UM062X) =  -507.070369587     A.U. after   15 cycles
 SCF Done:  E(UM062X) =  -507.070143261     A.U. after   16 cycles
 SCF Done:  E(UM062X) =  -507.070439406     A.U. after   15 cycles
 SCF Done:  E(UM062X) =  -507.070446221     A.U. after   13 cycles
 SCF Done:  E(UM062X) =  -507.070446591     A.U. after   13 cycles
 SCF Done:  E(UM062X) =  -507.070447435     A.U. after   11 cycles
 SCF Done:  E(UM062X) =  -507.070447493     A.U. after    9 cycles
 Optimization completed.
    -- Stationary point found.
 Normal termination of Gaussian 16 at Thu Dec  7 10:06:02 2023.

 ----------------------------------------------------------------------
 #N Geom=AllCheck Guess=TCheck SCRF=Check GenChk UM062X/6-31+G(d,p) Fre
 q
 ----------------------------------------------------------------------

 Structure from the checkpoint file:  "/home/gau/soft/scratch/Gau-50526.chk"
 --
 TS
 --
 Charge = -1 Multiplicity = 2

                         Standard orientation:
 ---------------------------------------------------------------------
 Center     Atomic      Atomic             Coordinates (Angstroms)
 Number     Number       Type             X           Y           Z
 ---------------------------------------------------------------------
      1          7           0       -0.270732   -0.395053    0.030219
      2          7           0       -0.518050    0.927274   -0.350430
      3          6           0       -1.879875    1.060662   -0.214947
      4          6           0       -2.389337   -0.173474    0.126573
      5          7           0       -1.422893   -1.101974    0.264361
      6          1           0       -2.366846    2.003193   -0.409966
      7          1           0       -3.424014   -0.451999    0.272474
      8          1           0        1.854371    0.883600   -0.033102
      9          6           0        0.994136   -1.001741   -0.063125
     10          8           0        1.993898   -0.174410   -0.280669
     11          8           0        1.106853   -2.209584    0.062031
     12          8           0        1.535918    2.163532    0.257804
     13          1           0        0.317171    1.664252   -0.038347
     14          1           0        1.658147    2.340236    1.195557
 ---------------------------------------------------------------------

 SCF Done:  E(UM062X) =  -507.070447493     A.U. after    1 cycles

 The electronic state is 2-A.
 Alpha  occ. eigenvalues --  -19.48707 -19.45641 -19.45414 -14.70583 -14.65584
 Alpha  occ. eigenvalues --  -14.63216 -10.54137 -10.43982 -10.43576  -1.07299
 Alpha  occ. eigenvalues --   -1.01823  -0.96065  -0.91650  -0.84136  -0.78835
 Alpha  occ. eigenvalues --   -0.61637  -0.55818  -0.51994  -0.51164  -0.42985
 Alpha  occ. eigenvalues --   -0.41173  -0.39533  -0.38106  -0.35338  -0.34234
 Alpha  occ. eigenvalues --   -0.32537  -0.28682  -0.24631  -0.23013  -0.22031
 Alpha  occ. eigenvalues --   -0.20970  -0.20466  -0.19530  -0.18461  -0.02494
 Alpha virt. eigenvalues --    0.12978   0.13705   0.16195   0.17461   0.18444
 Alpha virt. eigenvalues --    0.18684   0.18993   0.20344   0.21120   0.21777
 Alpha virt. eigenvalues --    0.24302   0.24526   0.25875   0.26748   0.28089

  Beta  occ. eigenvalues --  -19.48679 -19.45627 -19.45277 -14.70294 -14.65107
  Beta  occ. eigenvalues --  -14.62690 -10.54123 -10.43845 -10.43659  -1.06590
  Beta  occ. eigenvalues --   -1.01097  -0.95788  -0.91552  -0.82548  -0.77935
  Beta  occ. eigenvalues --   -0.60655  -0.55297  -0.51198  -0.50864  -0.41538
  Beta  occ. eigenvalues --   -0.40145  -0.39017  -0.37738  -0.34944  -0.33469
  Beta  occ. eigenvalues --   -0.31671  -0.28444  -0.22672  -0.21826  -0.20765
  Beta  occ. eigenvalues --   -0.19943  -0.18299  -0.17872  -0.17079
  Beta virt. eigenvalues --    0.12212   0.13384   0.13722   0.15648   0.16593
  Beta virt. eigenvalues --    0.18191   0.18554   0.18706   0.19593   0.19962
  Beta virt. eigenvalues --    0.21727   0.23317   0.24951   0.25904   0.27419

 Mulliken charges and spin densities:
               1          2
     1  N   -0.157403   0.095347
     2  N   -0.326298   0.228867
     3  C   -0.229304   0.263164
     4  C   -0.159349  -0.127293
     5  N   -0.241823   0.419574
     6  H    0.138973  -0.010532
     7  H    0.127083   0.003365
     8  H    0.508507   0.000203
     9  C    0.696817   0.036859
    10  O   -0.606741   0.009977
    11  O   -0.543161   0.067917
    12  O   -1.039921   0.011138
    13  H    0.472305   0.002216
    14  H    0.360314  -0.000802
 Sum of Mulliken charges =  -1.00000   1.00000

 Dipole moment (field-independent basis, Debye):
    X=             -3.8648    Y=              3.3915    Z=              1.1114  Tot=              5.2606
 Quadrupole moment (field-independent basis, Debye-Ang):
   XX=            -68.3011   YY=            -77.2613   ZZ=            -55.6595
   XY=             -2.0124   XZ=              3.3971   YZ=              3.6977

  Exact polarizability:     103.497      -5.383      98.234      -1.122      -2.604      54.735
 Approx polarizability:     107.272      -3.648     117.693      -2.426      -6.559      66.740

 ******    1 imaginary frequencies (negative Signs) ******

                      1                      2                      3
                      A                      A                      A
 Frequencies --   -572.0914                85.7906               109.8756
 Red. masses --      1.6506                 6.0945                 7.4343
 Frc consts  --      0.3183                 0.0264                 0.0529
 IR Inten    --    370.8410                 4.2980                 0.9380

                      4                      5                      6
                      A                      A                      A
 Frequencies --    127.8280               259.6115               376.1308
 Red. masses --      6.9885                 7.3288                 5.8912
 Frc consts  --      0.0673                 0.2910                 0.4911
 IR Inten    --      0.9645                 2.6322                 0.0900

                      7                      8                      9
                      A                      A                      A
 Frequencies --    403.6495               474.6510               512.5667
 Red. masses --      9.1401                 1.4323                 1.1868
 Frc consts  --      0.8774                 0.1901                 0.1837
 IR Inten    --     54.3413                47.8748                42.3767

                     10                     11                     12
                      A                      A                      A
 Frequencies --    531.3667               560.3963               580.2323
 Red. masses --      6.5256                 5.7088                 4.6681
 Frc consts  --      1.0856                 1.0563                 0.9260
 IR Inten    --    198.9960                10.4694                79.2818

                     13                     14                     15
                      A                      A                      A
 Frequencies --    615.2337               653.2518               733.6920
 Red. masses --      4.4197                 1.2157                11.8573
 Frc consts  --      0.9856                 0.3057                 3.7606
 IR Inten    --      8.9878                66.9770                20.0182

                     16                     17                     18
                      A                      A                      A
 Frequencies --    858.4874               871.0646               926.5276
 Red. masses --      1.2573                 5.0952                 5.6040
 Frc consts  --      0.5459                 2.2778                 2.8344
 IR Inten    --     17.8487               214.7816                15.9042

                     19                     20                     21
                      A                      A                      A
 Frequencies --   1040.2624              1110.5384              1164.0147
 Red. masses --      2.3925                 1.4134                 2.2087
 Frc consts  --      1.5254                 1.0270                 1.7632
 IR Inten    --    148.2451                13.7748                55.2151

                     22                     23                     24
                      A                      A                      A
 Frequencies --   1233.4372              1242.8563              1283.7780
 Red. masses --      5.9419                 4.7792                 1.5321
 Frc consts  --      5.3261                 4.3496                 1.4877
 IR Inten    --    112.1731                16.9169                33.1412

                     25                     26                     27
                      A                      A                      A
 Frequencies --   1326.7104              1391.3907              1414.9712
 Red. masses --      2.4969                 1.3972                 1.8109
 Frc consts  --      2.5894                 1.5937                 2.1361
 IR Inten    --     21.6989               229.2277                28.4594

                     28                     29                     30
                      A                      A                      A
 Frequencies --   1455.3991              1495.2321              1532.0216
 Red. masses --      4.0340                 1.2231                 3.8356
 Frc consts  --      5.0345                 1.6112                 5.3041
 IR Inten    --   1134.6314               472.9405                78.8515

                     31                     32                     33
                      A                      A                      A
 Frequencies --   1763.0421              1812.9239              1980.1274
 Red. masses --      1.3377                 3.6263                 1.1583
 Frc consts  --      2.4499                 7.0223                 2.6758
 IR Inten    --    654.4938               747.0547              3518.8581

                     34                     35                     36
                      A                      A                      A
 Frequencies --   3271.3219              3310.0428              3934.2918
 Red. masses --      1.0916                 1.0999                 1.0659
 Frc consts  --      6.8824                 7.1000                 9.7204
 IR Inten    --     14.8147                 7.9999                13.2060

 - Thermochemistry -
 -------------------
 Temperature   298.150 Kelvin.  Pressure   1.00000 Atm.
 Atom     1 has atomic number  7 and mass  14.00307

 Molecular mass:   131.03309 amu.
 Principal axes and moments of inertia in atomic units:
                           1         2         3
     Eigenvalues --   825.198121100.781971872.11177
           X            0.99936   0.03527   0.00662
           Y           -0.03533   0.99934   0.00841
           Z           -0.00632  -0.00864   0.99994
 This molecule is an asymmetric top.
 Rotational symmetry number  1.
 Warning -- assumption of classical behavior for rotation
           may cause significant error
 Rotational temperatures (Kelvin)      0.10496     0.07868     0.04627
 Rotational constants (GHZ):           2.18704     1.63951     0.96401
    1 imaginary frequencies ignored.
 Zero-point vibrational energy     241901.2 (Joules/Mol)
                                   57.81577 (Kcal/Mol)
 Warning -- explicit consideration of  12 degrees of freedom as
           vibrations may cause significant error
 Vibrational temperatures:    123.43   158.09   183.92   373.52   541.17
          (Kelvin)            580.76   682.92   737.47   764.52   806.29
                              834.82   885.18   939.88  1055.62  1235.17
                             1253.27  1333.07  1496.71  1597.82  1674.76
                             1774.64  1788.19  1847.07  1908.84  2001.90
                             2035.83  2093.99  2151.31  2204.24  2536.62
                             2608.39  2848.96  4706.70  4762.41  5660.57

 Zero-point correction=                           0.092135 (Hartree/Particle)
 Thermal correction to Energy=                    0.099971
 Thermal correction to Enthalpy=                  0.100916
 Thermal correction to Gibbs Free Energy=         0.058469
 Sum of electronic and zero-point Energies=           -506.978312
 Sum of electronic and thermal Energies=              -506.970476
 Sum of electronic and thermal Enthalpies=            -506.969532
 Sum of electronic and thermal Free Energies=         -507.011979

                     E (Thermal)             CV                S
                      KCal/Mol        Cal/Mol-Kelvin    Cal/Mol-Kelvin
 Total                   62.733             28.665             89.336
 Electronic               0.000              0.000              1.377
 Translational            0.889              2.981             40.524
 Rotational               0.889              2.981             28.921
 Vibrational             60.955             22.704             18.514
 Vibration     1          0.601              1.959              3.754
 Vibration     2          0.606              1.941              3.271
 Vibration     3          0.611              1.925              2.978
 Vibration     4          0.668              1.746              1.664
 Vibration     5          0.747              1.521              1.055
 Vibration     6          0.769              1.462              0.949
 Vibration     7          0.831              1.306              0.725
 Vibration     8          0.868              1.222              0.627
 Vibration     9          0.886              1.181              0.584
 Vibration    10          0.916              1.117              0.523
 Vibration    11          0.937              1.074              0.485
 Vibration    12          0.975              1.000              0.424

 Optimization completed.
    -- Stationary point found.
 Normal termination of Gaussian 16 at Thu Dec  7 10:07:16 2023.
