 Gaussian 16, Revision A.03,
 Gaussian 16:  ES64L-G16RevA.03 25-Dec-2016

 ----------------------------------------------------------------------
 # opt=(calcfc,ts,noeigentest) freq 6-31+g(d,p) integral=grid=ultrafine
  m062x
 ----------------------------------------------------------------------

 ----------
 2-H-1-H-Tz
 ----------
 Symbolic Z-matrix:
 Charge =  1 Multiplicity = 1

 SCF Done:  E(RM062X) =  -430.923030194     A.U. after   15 cycles
 SCF Done:  E(RM062X) =  -430.932551007     A.U. after   14 cycles
 SCF Done:  E(RM062X) =  -430.941497211     A.U. after   13 cycles
 SCF Done:  E(RM062X) =  -430.947893230     A.U. after   13 cycles
 SCF Done:  E(RM062X) =  -430.948661397     A.U. after   13 cycles
 SCF Done:  E(RM062X) =  -430.945790265     A.U. after   13 cycles
 SCF Done:  E(RM062X) =  -430.947572257     A.U. after   13 cycles
 SCF Done:  E(RM062X) =  -430.950110049     A.U. after   13 cycles
 SCF Done:  E(RM062X) =  -430.950191394     A.U. after   13 cycles
 SCF Done:  E(RM062X) =  -430.949967802     A.U. after   13 cycles
 SCF Done:  E(RM062X) =  -430.950830679     A.U. after   13 cycles
 SCF Done:  E(RM062X) =  -430.950938770     A.U. after   12 cycles
 SCF Done:  E(RM062X) =  -430.949029716     A.U. after   13 cycles
 SCF Done:  E(RM062X) =  -430.950487658     A.U. after   13 cycles
 SCF Done:  E(RM062X) =  -430.950933060     A.U. after   12 cycles
 SCF Done:  E(RM062X) =  -430.950955548     A.U. after   11 cycles
 SCF Done:  E(RM062X) =  -430.950964153     A.U. after   11 cycles
 SCF Done:  E(RM062X) =  -430.950964074     A.U. after   10 cycles
 SCF Done:  E(RM062X) =  -430.950964043     A.U. after    9 cycles
 Optimization completed.
    -- Stationary point found.
 Normal termination of Gaussian 16 at Sat Jul 15 12:45:20 2023.

 ----------------------------------------------------------------------
 #N Geom=AllCheck Guess=TCheck SCRF=Check GenChk RM062X/6-31+G(d,p) Fre
 q
 ----------------------------------------------------------------------

 Structure from the checkpoint file:  "/scratch/gongke2021/2-H-1-H-Tz-2-TS-gas/Gau-4365.chk"
 ----------
 2-H-1-H-Tz
 ----------
 Charge =  1 Multiplicity = 1

                         Standard orientation:
 ---------------------------------------------------------------------
 Center     Atomic      Atomic             Coordinates (Angstroms)
 Number     Number       Type             X           Y           Z
 ---------------------------------------------------------------------
      1          7           0        0.598490   -0.847077    0.000230
      2          7           0        1.912984   -0.801813   -0.000199
      3          6           0        2.346214    0.475591   -0.000318
      4          6           0        1.191682    1.235582    0.000173
      5          7           0        0.157221    0.369253    0.000697
      6          1           0        3.393490    0.737600   -0.000730
      7          1           0        1.056024    2.305833    0.000253
      8          1           0        2.452662   -1.662598   -0.000595
      9          1           0       -0.766643   -1.472665    0.000184
     10          6           0       -1.936735    0.030375   -0.000113
     11          8           0       -1.796043   -1.195092   -0.000003
     12          8           0       -2.506877    1.020092   -0.000330
 ---------------------------------------------------------------------

 SCF Done:  E(RM062X) =  -430.950964043     A.U. after    1 cycles

 The electronic state is 1-A.
 Alpha  occ. eigenvalues --  -19.94656 -19.92574 -15.08383 -15.06731 -15.03584
 Alpha  occ. eigenvalues --  -10.97190 -10.80953 -10.79090  -1.50501  -1.46371
 Alpha  occ. eigenvalues --   -1.44677  -1.24605  -1.13508  -0.96674  -0.95135
 Alpha  occ. eigenvalues --   -0.94032  -0.86889  -0.82102  -0.80094  -0.80019
 Alpha  occ. eigenvalues --   -0.77697  -0.74201  -0.72311  -0.70204  -0.65022
 Alpha  occ. eigenvalues --   -0.64269  -0.59489  -0.59398  -0.53624
 Alpha virt. eigenvalues --   -0.18934  -0.17177  -0.13825  -0.13406  -0.11582
 Alpha virt. eigenvalues --   -0.11310  -0.09648  -0.08778  -0.08167  -0.07674
 Alpha virt. eigenvalues --   -0.07509  -0.05278  -0.03770  -0.02591  -0.02558

 Mulliken charges:
               1
     1  N   -0.214306
     2  N   -0.328222
     3  C   -0.040620
     4  C   -0.149592
     5  N    0.030159
     6  H    0.266869
     7  H    0.248689
     8  H    0.403462
     9  H    0.524617
    10  C    0.786880
    11  O   -0.303204
    12  O   -0.224733
 Sum of Mulliken charges =   1.00000

 Dipole moment (field-independent basis, Debye):
    X=              4.7382    Y=             -1.3577    Z=             -0.0017  Tot=              4.9288
 Quadrupole moment (field-independent basis, Debye-Ang):
   XX=            -18.4059   YY=            -32.9251   ZZ=            -43.9009
   XY=             -0.7166   XZ=             -0.0049   YZ=              0.0016

  Exact polarizability:  77.991  -1.675  60.829  -0.004  -0.001  30.820
 Approx polarizability:  88.222  -5.220  88.676  -0.007  -0.001  39.328

 ******    1 imaginary frequencies (negative Signs) ******

                      1                      2                      3
                      A                      A                      A
 Frequencies --   -335.5111               100.2328               123.5265
 Red. masses --      4.9968                 6.2920                 7.6041
 Frc consts  --      0.3314                 0.0372                 0.0684
 IR Inten    --     17.6205                 2.3365                 6.6489

                      4                      5                      6
                      A                      A                      A
 Frequencies --    288.2523               372.1041               435.8427
 Red. masses --      8.2161                12.0976                 5.3261
 Frc consts  --      0.4022                 0.9869                 0.5961
 IR Inten    --     84.4024               108.4016                 9.1130

                      7                      8                      9
                      A                      A                      A
 Frequencies --    639.1616               647.5582               705.8746
 Red. masses --      4.8515                 6.9372                 4.3794
 Frc consts  --      1.1677                 1.7139                 1.2856
 IR Inten    --     10.4422                16.6507                53.5625

                     10                     11                     12
                      A                      A                      A
 Frequencies --    742.1471               843.6485               925.7435
 Red. masses --      1.2953                 1.1991                 1.2238
 Frc consts  --      0.4203                 0.5028                 0.6179
 IR Inten    --     74.6711                34.7491                68.6426

                     13                     14                     15
                      A                      A                      A
 Frequencies --    937.2142               973.0593              1016.1252
 Red. masses --      1.1659                 6.6701                 2.6282
 Frc consts  --      0.6034                 3.7210                 1.5988
 IR Inten    --     54.5721                 3.5693                 4.6872

                     16                     17                     18
                      A                      A                      A
 Frequencies --   1124.3213              1140.6824              1213.5203
 Red. masses --      1.5279                 1.6103                 2.6303
 Frc consts  --      1.1380                 1.2345                 2.2822
 IR Inten    --      7.4679                20.6676                57.5207

                     19                     20                     21
                      A                      A                      A
 Frequencies --   1275.2635              1281.8611              1406.8859
 Red. masses --      7.3967                 4.2932                 4.5216
 Frc consts  --      7.0875                 4.1564                 5.2730
 IR Inten    --     30.1433                79.3400                80.0250

                     22                     23                     24
                      A                      A                      A
 Frequencies --   1429.2182              1491.4725              1526.6824
 Red. masses --      2.4182                 1.9996                 2.4917
 Frc consts  --      2.9103                 2.6208                 3.4217
 IR Inten    --    202.7505               460.2489               335.0834

                     25                     26                     27
                      A                      A                      A
 Frequencies --   1590.1902              2172.1867              2426.4315
 Red. masses --      2.7627                 1.4023                 3.5655
 Frc consts  --      4.1161                 3.8983                12.3682
 IR Inten    --      4.6104              1878.6679               189.1292

                     28                     29                     30
                      A                      A                      A
 Frequencies --   3317.3368              3332.7335              3621.5219
 Red. masses --      1.0972                 1.1104                 1.0863
 Frc consts  --      7.1143                 7.2666                 8.3942
 IR Inten    --     31.8415                29.6815               255.2263

 - Thermochemistry -
 -------------------
 Temperature   298.150 Kelvin.  Pressure   1.00000 Atm.
 Atom     1 has atomic number  7 and mass  14.00307

 Molecular mass:   114.03035 amu.
 Principal axes and moments of inertia in atomic units:
                           1         2         3
     Eigenvalues --   329.813761270.971131600.78480
           X            0.99997   0.00749  -0.00001
           Y           -0.00749   0.99997   0.00001
           Z            0.00001  -0.00001   1.00000
 This molecule is an asymmetric top.
 Rotational symmetry number  1.
 Rotational temperatures (Kelvin)      0.26261     0.06815     0.05411
 Rotational constants (GHZ):           5.47200     1.41997     1.12741
    1 imaginary frequencies ignored.
 Zero-point vibrational energy     221912.1 (Joules/Mol)
                                   53.03825 (Kcal/Mol)
 Warning -- explicit consideration of   5 degrees of freedom as
           vibrations may cause significant error
 Vibrational temperatures:    144.21   177.73   414.73   535.37   627.08
          (Kelvin)            919.61   931.69  1015.60  1067.78  1213.82
                             1331.94  1348.44  1400.02  1461.98  1617.65
                             1641.19  1745.99  1834.82  1844.31  2024.19
                             2056.33  2145.90  2196.56  2287.93  3125.29
                             3491.09  4772.91  4795.06  5210.56

 Zero-point correction=                           0.084522 (Hartree/Particle)
 Thermal correction to Energy=                    0.090659
 Thermal correction to Enthalpy=                  0.091604
 Thermal correction to Gibbs Free Energy=         0.053497
 Sum of electronic and zero-point Energies=           -430.866442
 Sum of electronic and thermal Energies=              -430.860305
 Sum of electronic and thermal Enthalpies=            -430.859360
 Sum of electronic and thermal Free Energies=         -430.897467

                     E (Thermal)             CV                S
                      KCal/Mol        Cal/Mol-Kelvin    Cal/Mol-Kelvin
 Total                   56.890             21.603             80.202
 Electronic               0.000              0.000              0.000
 Translational            0.889              2.981             40.109
 Rotational               0.889              2.981             27.997
 Vibrational             55.112             15.641             12.096
 Vibration     1          0.604              1.949              3.450
 Vibration     2          0.610              1.929              3.044
 Vibration     3          0.685              1.696              1.484
 Vibration     4          0.744              1.529              1.071
 Vibration     5          0.796              1.392              0.840

 Optimization completed.
    -- Stationary point found.
 Normal termination of Gaussian 16 at Sat Jul 15 12:45:56 2023.
