 Gaussian 16, Revision A.03,
 Gaussian 16:  ES64L-G16RevA.03 25-Dec-2016

 ----------------------------
 # opt freq 6-31+g(d,p) m062x
 ----------------------------

 ----------
 2-H-1-H-Tz
 ----------
 Symbolic Z-matrix:
 Charge =  1 Multiplicity = 1

 SCF Done:  E(RM062X) =  -242.449540629     A.U. after   13 cycles
 SCF Done:  E(RM062X) =  -242.465264557     A.U. after   12 cycles
 SCF Done:  E(RM062X) =  -242.467261494     A.U. after   11 cycles
 SCF Done:  E(RM062X) =  -242.467551923     A.U. after   10 cycles
 SCF Done:  E(RM062X) =  -242.467563239     A.U. after    9 cycles
 SCF Done:  E(RM062X) =  -242.467564243     A.U. after    8 cycles
 Optimization completed.
    -- Stationary point found.
 Normal termination of Gaussian 16 at Tue May  9 21:20:26 2023.

 ----------------------------------------------------------------------
 #N Geom=AllCheck Guess=TCheck SCRF=Check GenChk RM062X/6-31+G(d,p) Fre
 q
 ----------------------------------------------------------------------

 Structure from the checkpoint file:  "/scratch/gongke2021/2-H-1-H-Tz/Gau-28958.chk"
 ----------
 2-H-1-H-Tz
 ----------
 Charge =  1 Multiplicity = 1

                         Standard orientation:
 ---------------------------------------------------------------------
 Center     Atomic      Atomic             Coordinates (Angstroms)
 Number     Number       Type             X           Y           Z
 ---------------------------------------------------------------------
      1          7           0       -0.897206   -0.574220    0.000082
      2          7           0       -0.774630    0.751841    0.000123
      3          6           0        0.529887    1.037353    0.000067
      4          6           0        1.171230   -0.201198   -0.000155
      5          7           0        0.248978   -1.170453   -0.000170
      6          1           0        0.898647    2.053093    0.000142
      7          1           0        2.226281   -0.427885   -0.000298
      8          1           0       -1.582168    1.371723    0.000412
      9          1           0       -1.789468   -1.064036    0.000027
 ---------------------------------------------------------------------

 SCF Done:  E(RM062X) =  -242.467564243     A.U. after    1 cycles

 The electronic state is 1-A.
 Alpha  occ. eigenvalues --  -15.13603 -15.12145 -15.04883 -10.84343 -10.80729
 Alpha  occ. eigenvalues --   -1.50287  -1.28439  -1.18496  -0.99054  -0.97203
 Alpha  occ. eigenvalues --   -0.95327  -0.81837  -0.80785  -0.76551  -0.73347
 Alpha  occ. eigenvalues --   -0.62342  -0.61370  -0.56880
 Alpha virt. eigenvalues --   -0.22442  -0.16128  -0.13639  -0.12785  -0.10708
 Alpha virt. eigenvalues --   -0.09582  -0.08865  -0.08416  -0.06843  -0.03537
 Alpha virt. eigenvalues --   -0.03260  -0.02538  -0.02270  -0.00929   0.02051

 Mulliken charges:
               1
     1  N   -0.133783
     2  N   -0.117761
     3  C   -0.034396
     4  C   -0.128844
     5  N    0.041449
     6  H    0.278285
     7  H    0.260463
     8  H    0.411473
     9  H    0.423114
 Sum of Mulliken charges =   1.00000

 Dipole moment (field-independent basis, Debye):
    X=             -2.6947    Y=              2.9289    Z=              0.0007  Tot=              3.9799
 Quadrupole moment (field-independent basis, Debye-Ang):
   XX=            -11.8151   YY=            -20.1288   ZZ=            -28.8104
   XY=              1.0651   XZ=             -0.0018   YZ=              0.0013

  Exact polarizability:  43.531   1.162  42.642  -0.002   0.002  21.717
 Approx polarizability:  57.747   1.782  58.029  -0.003   0.003  27.225

                      1                      2                      3
                      A                      A                      A
 Frequencies --    542.9649               639.2702               667.2267
 Red. masses --      1.7347                 2.8078                 1.2177
 Frc consts  --      0.3013                 0.6761                 0.3194
 IR Inten    --      8.3214                23.4278               145.6876

                      4                      5                      6
                      A                      A                      A
 Frequencies --    699.3982               868.0581               945.0873
 Red. masses --      2.4758                 1.1801                 1.3745
 Frc consts  --      0.7135                 0.5239                 0.7233
 IR Inten    --     74.1796                53.6647                 0.4911

                      7                      8                      9
                      A                      A                      A
 Frequencies --    950.3174               993.2711              1098.3523
 Red. masses --      5.8358                 3.7474                 1.5343
 Frc consts  --      3.1052                 2.1783                 1.0906
 IR Inten    --     17.7839                 4.5121                15.2164

                     10                     11                     12
                      A                      A                      A
 Frequencies --   1138.9816              1187.3856              1267.8343
 Red. masses --      1.3735                 2.1626                 3.9973
 Frc consts  --      1.0498                 1.7964                 3.7856
 IR Inten    --     63.6381                25.6979                 3.9578

                     13                     14                     15
                      A                      A                      A
 Frequencies --   1320.2105              1413.5503              1506.3081
 Red. masses --      1.5484                 2.7446                 3.8474
 Frc consts  --      1.5901                 3.2311                 5.1434
 IR Inten    --     28.1444                10.3806                 1.1719

                     16                     17                     18
                      A                      A                      A
 Frequencies --   1528.5401              1605.6028              3312.5420
 Red. masses --      2.6912                 2.6563                 1.1001
 Frc consts  --      3.7046                 4.0346                 7.1125
 IR Inten    --     26.1432                19.7278                38.9902

                     19                     20                     21
                      A                      A                      A
 Frequencies --   3328.2068              3589.4358              3603.0007
 Red. masses --      1.1080                 1.0873                 1.0884
 Frc consts  --      7.2311                 8.2539                 8.3245
 IR Inten    --     44.2524               218.3397               421.3778

 - Thermochemistry -
 -------------------
 Temperature   298.150 Kelvin.  Pressure   1.00000 Atm.
 Atom     1 has atomic number  7 and mass  14.00307

 Molecular mass:    70.04052 amu.
 Principal axes and moments of inertia in atomic units:
                           1         2         3
     Eigenvalues --   184.07787 188.97152 373.04939
           X           -0.52985   0.84809   0.00011
           Y            0.84809   0.52985  -0.00010
           Z            0.00015  -0.00004   1.00000
 This molecule is an asymmetric top.
 Rotational symmetry number  1.
 Rotational temperatures (Kelvin)      0.47053     0.45834     0.23218
 Rotational constants (GHZ):           9.80423     9.55033     4.83781
 Zero-point vibrational energy     192631.9 (Joules/Mol)
                                   46.04014 (Kcal/Mol)
 Warning -- explicit consideration of   1 degrees of freedom as
           vibrations may cause significant error
 Vibrational temperatures:    781.21   919.77   959.99  1006.28  1248.94
          (Kelvin)           1359.77  1367.29  1429.10  1580.28  1638.74
                             1708.38  1824.13  1899.49  2033.78  2167.24
                             2199.23  2310.10  4766.01  4788.55  5164.40
                             5183.91

 Zero-point correction=                           0.073370 (Hartree/Particle)
 Thermal correction to Energy=                    0.077071
 Thermal correction to Enthalpy=                  0.078015
 Thermal correction to Gibbs Free Energy=         0.047093
 Sum of electronic and zero-point Energies=           -242.394195
 Sum of electronic and thermal Energies=              -242.390494
 Sum of electronic and thermal Enthalpies=            -242.389549
 Sum of electronic and thermal Free Energies=         -242.420471

                     E (Thermal)             CV                S
                      KCal/Mol        Cal/Mol-Kelvin    Cal/Mol-Kelvin
 Total                   48.363             12.936             65.081
 Electronic               0.000              0.000              0.000
 Translational            0.889              2.981             38.657
 Rotational               0.889              2.981             24.077
 Vibrational             46.585              6.974              2.348
 Vibration     1          0.898              1.155              0.559

 Optimization completed.
    -- Stationary point found.
 Normal termination of Gaussian 16 at Tue May  9 21:20:47 2023.
