 Gaussian 16, Revision A.03,
 Gaussian 16:  ES64L-G16RevA.03 25-Dec-2016

 ----------------------------
 # opt freq 6-31+g(d,p) m062x
 ----------------------------

 ----------
 2-H-1-H-Tz
 ----------
 Symbolic Z-matrix:
 Charge =  1 Multiplicity = 1

 SCF Done:  E(RM062X) =  -430.999614765     A.U. after   14 cycles
 SCF Done:  E(RM062X) =  -430.999614807     A.U. after    7 cycles
 SCF Done:  E(RM062X) =  -430.999614801     A.U. after    7 cycles
 Optimization completed.
    -- Stationary point found.
 Normal termination of Gaussian 16 at Sat Jul 15 13:16:13 2023.

 ----------------------------------------------------------------------
 #N Geom=AllCheck Guess=TCheck SCRF=Check GenChk RM062X/6-31+G(d,p) Fre
 q
 ----------------------------------------------------------------------

 Structure from the checkpoint file:  "/scratch/gongke2021/2-H-1-H-Tz-opt/Gau-1929.chk"
 ----------
 2-H-1-H-Tz
 ----------
 Charge =  1 Multiplicity = 1

                         Standard orientation:
 ---------------------------------------------------------------------
 Center     Atomic      Atomic             Coordinates (Angstroms)
 Number     Number       Type             X           Y           Z
 ---------------------------------------------------------------------
      1          7           0        0.918982   -0.652212   -0.000032
      2          7           0        0.923371    0.675995    0.000047
      3          6           0        2.196390    1.077348    0.000176
      4          6           0        2.945221   -0.099449    0.000129
      5          7           0        2.111880   -1.147495    0.000019
      6          1           0        2.473841    2.121214    0.000278
      7          1           0        4.015936   -0.231933    0.000270
      8          1           0        0.044760    1.192894   -0.000028
      9          1           0        0.056133   -1.193602   -0.000179
     10          6           0       -2.970150    0.004588   -0.000084
     11          8           0       -4.119177   -0.014872   -0.000541
     12          8           0       -1.793206    0.025183    0.000304
 ---------------------------------------------------------------------

 SCF Done:  E(RM062X) =  -430.999614801     A.U. after    1 cycles

 The electronic state is 1-A.
 Alpha  occ. eigenvalues --  -19.89744 -19.89140 -15.11833 -15.10298 -15.03393
 Alpha  occ. eigenvalues --  -10.91465 -10.82816 -10.79394  -1.48765  -1.45496
 Alpha  occ. eigenvalues --   -1.40554  -1.26782  -1.16938  -0.97380  -0.95623
 Alpha  occ. eigenvalues --   -0.93901  -0.82844  -0.80299  -0.79376  -0.76779
 Alpha  occ. eigenvalues --   -0.76304  -0.76267  -0.75060  -0.71869  -0.60835
 Alpha  occ. eigenvalues --   -0.60778  -0.60540  -0.59982  -0.55431
 Alpha virt. eigenvalues --   -0.20834  -0.15104  -0.12471  -0.12168  -0.10607
 Alpha virt. eigenvalues --   -0.09059  -0.09021  -0.08377  -0.08194  -0.07882
 Alpha virt. eigenvalues --   -0.06613  -0.05763  -0.04924  -0.04059  -0.02784

 Mulliken charges:
               1
     1  N   -0.171546
     2  N   -0.092598
     3  C   -0.099199
     4  C   -0.097471
     5  N    0.036838
     6  H    0.268266
     7  H    0.255916
     8  H    0.424246
     9  H    0.430851
    10  C    0.883151
    11  O   -0.235404
    12  O   -0.603050
 Sum of Mulliken charges =   1.00000

 Dipole moment (field-independent basis, Debye):
    X=              3.4048    Y=              2.6092    Z=              0.0000  Tot=              4.2896
 Quadrupole moment (field-independent basis, Debye-Ang):
   XX=            -19.5911   YY=            -35.2398   ZZ=            -43.6236
   XY=              6.4110   XZ=              0.0010   YZ=              0.0009

  Exact polarizability:  77.796   1.665  50.490   0.008   0.002  30.202
 Approx polarizability:  94.962   2.128  68.139   0.012   0.002  37.250

                      1                      2                      3
                      A                      A                      A
 Frequencies --     37.9354                56.3980                90.6686
 Red. masses --      6.1714                 6.7390                 6.8227
 Frc consts  --      0.0052                 0.0126                 0.0330
 IR Inten    --      1.0524                 2.5782                 4.2743

                      4                      5                      6
                      A                      A                      A
 Frequencies --    106.0003               131.7499               596.1023
 Red. masses --      7.1576                10.6568                 2.4351
 Frc consts  --      0.0474                 0.1090                 0.5098
 IR Inten    --      6.4056                14.8582                 5.5434

                      7                      8                      9
                      A                      A                      A
 Frequencies --    644.3640               662.1384               672.0874
 Red. masses --      2.7714                12.1672                12.8877
 Frc consts  --      0.6780                 3.1430                 3.4299
 IR Inten    --     11.3005                36.3585                39.3780

                     10                     11                     12
                      A                      A                      A
 Frequencies --    705.0380               726.5624               868.2312
 Red. masses --      1.5411                 1.3306                 1.1789
 Frc consts  --      0.4514                 0.4138                 0.5236
 IR Inten    --     10.9489               198.1664                52.3603

                     13                     14                     15
                      A                      A                      A
 Frequencies --    944.6558               953.9190               992.9665
 Red. masses --      1.3679                 5.8403                 3.6187
 Frc consts  --      0.7192                 3.1312                 2.1022
 IR Inten    --      0.9645                22.5798                 1.7017

                     16                     17                     18
                      A                      A                      A
 Frequencies --   1099.4664              1136.2396              1191.9830
 Red. masses --      1.5243                 1.3647                 1.9964
 Frc consts  --      1.0856                 1.0380                 1.6712
 IR Inten    --     16.0887                77.3299                84.9702

                     19                     20                     21
                      A                      A                      A
 Frequencies --   1270.3994              1312.2338              1409.5518
 Red. masses --      4.2823                 1.4602                15.1146
 Frc consts  --      4.0720                 1.4814                17.6933
 IR Inten    --      0.5179                44.4807                31.0887

                     22                     23                     24
                      A                      A                      A
 Frequencies --   1412.9189              1506.0880              1524.7753
 Red. masses --      2.8535                 3.9667                 3.0185
 Frc consts  --      3.3563                 5.3012                 4.1348
 IR Inten    --      7.3894                17.5722                54.2475

                     25                     26                     27
                      A                      A                      A
 Frequencies --   1604.1234              2477.6971              3316.6003
 Red. masses --      2.8423                12.7865                 1.0994
 Frc consts  --      4.3091                46.2485                 7.1249
 IR Inten    --     18.7508              1052.1274                32.9373

                     28                     29                     30
                      A                      A                      A
 Frequencies --   3331.0504              3569.4295              3592.5862
 Red. masses --      1.1082                 1.0870                 1.0882
 Frc consts  --      7.2448                 8.1601                 8.2754
 IR Inten    --     43.0872               230.9450               593.6520

 - Thermochemistry -
 -------------------
 Temperature   298.150 Kelvin.  Pressure   1.00000 Atm.
 Atom     1 has atomic number  7 and mass  14.00307

 Molecular mass:   114.03035 amu.
 Principal axes and moments of inertia in atomic units:
                           1         2         3
     Eigenvalues --   186.599472496.093832682.69327
           X            0.99998   0.00678  -0.00006
           Y           -0.00678   0.99998  -0.00007
           Z            0.00006   0.00007   1.00000
 This molecule is an asymmetric top.
 Rotational symmetry number  1.
 Rotational temperatures (Kelvin)      0.46417     0.03470     0.03229
 Rotational constants (GHZ):           9.67174     0.72303     0.67273
 Zero-point vibrational energy     226955.3 (Joules/Mol)
                                   54.24361 (Kcal/Mol)
 Warning -- explicit consideration of   6 degrees of freedom as
           vibrations may cause significant error
 Vibrational temperatures:     54.58    81.14   130.45   152.51   189.56
          (Kelvin)            857.66   927.10   952.67   966.98  1014.39
                             1045.36  1249.19  1359.15  1372.48  1428.66
                             1581.89  1634.80  1715.00  1827.82  1888.01
                             2028.03  2032.88  2166.92  2193.81  2307.98
                             3564.85  4771.85  4792.64  5135.61  5168.93

 Zero-point correction=                           0.086443 (Hartree/Particle)
 Thermal correction to Energy=                    0.094176
 Thermal correction to Enthalpy=                  0.095120
 Thermal correction to Gibbs Free Energy=         0.051672
 Sum of electronic and zero-point Energies=           -430.913172
 Sum of electronic and thermal Energies=              -430.905439
 Sum of electronic and thermal Enthalpies=            -430.904494
 Sum of electronic and thermal Free Energies=         -430.947943

                     E (Thermal)             CV                S
                      KCal/Mol        Cal/Mol-Kelvin    Cal/Mol-Kelvin
 Total                   59.097             24.353             91.446
 Electronic               0.000              0.000              0.000
 Translational            0.889              2.981             40.109
 Rotational               0.889              2.981             28.615
 Vibrational             57.319             18.392             22.721
 Vibration     1          0.594              1.982              5.364
 Vibration     2          0.596              1.975              4.579
 Vibration     3          0.602              1.956              3.646
 Vibration     4          0.605              1.944              3.341
 Vibration     5          0.612              1.922              2.920
 Vibration     6          0.954              1.040              0.456

                           ! Non-Optimized Parameters !
 Normal termination of Gaussian 16 at Sat Jul 15 13:16:46 2023.
