 Gaussian 16, Revision A.03,
 Gaussian 16:  ES64L-G16RevA.03 25-Dec-2016

 ----------------------------
 # opt freq 6-31+g(d,p) m062x
 ----------------------------

 --
 RC
 --
 Symbolic Z-matrix:
 Charge = -1 Multiplicity = 2

 SCF Done:  E(UM062X) =  -583.503136234     A.U. after   19 cycles
 SCF Done:  E(UM062X) =  -583.503137770     A.U. after   11 cycles
 SCF Done:  E(UM062X) =  -583.503099105     A.U. after   14 cycles
 SCF Done:  E(UM062X) =  -583.503141351     A.U. after   13 cycles
 SCF Done:  E(UM062X) =  -583.503142671     A.U. after   11 cycles
 SCF Done:  E(UM062X) =  -583.503143291     A.U. after   12 cycles
 SCF Done:  E(UM062X) =  -583.503144130     A.U. after   10 cycles
 SCF Done:  E(UM062X) =  -583.503145301     A.U. after   11 cycles
 SCF Done:  E(UM062X) =  -583.503145920     A.U. after   11 cycles
 SCF Done:  E(UM062X) =  -583.503146407     A.U. after   10 cycles
 SCF Done:  E(UM062X) =  -583.503146706     A.U. after   10 cycles
 Optimization completed.
    -- Stationary point found.
 Normal termination of Gaussian 16 at Tue Jun  6 00:38:00 2023.

 ----------------------------------------------------------------------
 #N Geom=AllCheck Guess=TCheck SCRF=Check GenChk UM062X/6-31+G(d,p) Fre
 q
 ----------------------------------------------------------------------

 Structure from the checkpoint file:  "/scratch/gongke2021/RC/Gau-8067.chk"
 --
 RC
 --
 Charge = -1 Multiplicity = 2

                         Standard orientation:
 ---------------------------------------------------------------------
 Center     Atomic      Atomic             Coordinates (Angstroms)
 Number     Number       Type             X           Y           Z
 ---------------------------------------------------------------------
      1          7           0        0.858498    0.310229   -0.143976
      2          7           0        0.277747   -0.967683   -0.046644
      3          6           0        1.374685   -1.838077   -0.031590
      4          6           0        2.493125   -1.045959    0.077043
      5          7           0        2.198925    0.266035    0.040079
      6          1           0        1.240234   -2.907032    0.000854
      7          1           0        3.520583   -1.362231    0.194789
      8          1           0       -0.492197   -1.105259   -0.708905
      9          6           0        0.027727    1.514579   -0.076189
     10          8           0       -1.207228    1.241497   -0.164639
     11          8           0        0.621991    2.578564    0.017104
     12          8           0       -2.288973   -0.599666    1.579498
     13          1           0       -1.441166   -1.062337    1.615341
     14          1           0       -2.027162    0.231065    1.126080
     15          8           0       -2.454933   -0.932039   -1.344910
     16          1           0       -2.129122   -0.016076   -1.242004
     17          1           0       -2.757434   -1.128302   -0.444367
 ---------------------------------------------------------------------

 SCF Done:  E(UM062X) =  -583.503146706     A.U. after    1 cycles

 The electronic state is 2-A.
 Alpha  occ. eigenvalues --  -19.50556 -19.50554 -19.46002 -19.45046 -14.71292
 Alpha  occ. eigenvalues --  -14.69743 -14.65219 -10.53577 -10.45952 -10.45617
 Alpha  occ. eigenvalues --   -1.07779  -1.01633  -0.99495  -0.98419  -0.93754
 Alpha  occ. eigenvalues --   -0.87245  -0.79254  -0.62718  -0.57692  -0.54453
 Alpha  occ. eigenvalues --   -0.47199  -0.45735  -0.44872  -0.43296  -0.40249
 Alpha  occ. eigenvalues --   -0.39168  -0.38232  -0.35339  -0.34542  -0.33264
 Alpha  occ. eigenvalues --   -0.32907  -0.26695  -0.26372  -0.25167  -0.24359
 Alpha  occ. eigenvalues --   -0.21883  -0.20799  -0.19150  -0.18088  -0.05352
 Alpha virt. eigenvalues --    0.11661   0.12689   0.15046   0.16497   0.16907
 Alpha virt. eigenvalues --    0.17845   0.18052   0.19207   0.20011   0.21157
 Alpha virt. eigenvalues --    0.22684   0.23365   0.24964   0.25629   0.26049

  Beta  occ. eigenvalues --  -19.50551 -19.50541 -19.45979 -19.44970 -14.70826
  Beta  occ. eigenvalues --  -14.69388 -14.64724 -10.53585 -10.45774 -10.45681
  Beta  occ. eigenvalues --   -1.06683  -1.01248  -0.99459  -0.98391  -0.93578
  Beta  occ. eigenvalues --   -0.85830  -0.78200  -0.61398  -0.57200  -0.53592
  Beta  occ. eigenvalues --   -0.46977  -0.45705  -0.43919  -0.41788  -0.39718
  Beta  occ. eigenvalues --   -0.38637  -0.37696  -0.35181  -0.34049  -0.32802
  Beta  occ. eigenvalues --   -0.32515  -0.26304  -0.25329  -0.23153  -0.21974
  Beta  occ. eigenvalues --   -0.20755  -0.18840  -0.18329  -0.17723
  Beta virt. eigenvalues --    0.11142   0.11618   0.12700   0.14785   0.15771
  Beta virt. eigenvalues --    0.17359   0.17533   0.17973   0.18775   0.19362
  Beta virt. eigenvalues --    0.21135   0.22706   0.23469   0.24682   0.25290

 Mulliken charges and spin densities:
               1          2
     1  N    0.099274   0.170220
     2  N   -0.638380   0.173554
     3  C   -0.271926   0.350152
     4  C   -0.116163  -0.173825
     5  N   -0.201556   0.414101
     6  H    0.147412  -0.015195
     7  H    0.136326   0.005142
     8  H    0.387471   0.017663
     9  C    0.753043   0.003637
    10  O   -0.826412   0.012997
    11  O   -0.561610   0.038979
    12  O   -0.834505   0.001266
    13  H    0.400367   0.000051
    14  H    0.467147   0.000446
    15  O   -0.808104  -0.000039
    16  H    0.457184   0.000795
    17  H    0.410433   0.000057
 Sum of Mulliken charges =  -1.00000   1.00000

 Dipole moment (field-independent basis, Debye):
    X=              2.0725    Y=             -6.1385    Z=              0.2227  Tot=              6.4827
 Quadrupole moment (field-independent basis, Debye-Ang):
   XX=            -84.1281   YY=            -79.2692   ZZ=            -70.5753
   XY=             -8.7438   XZ=              0.1473   YZ=             -2.1345

  Exact polarizability: 101.960  -2.531 104.163   1.607   0.880  61.664
 Approx polarizability: 112.835   6.386 120.223   2.546   0.888  72.015

                      1                      2                      3
                      A                      A                      A
 Frequencies --     60.0740                73.8658                80.3540
 Red. masses --      7.0046                 6.0861                 9.2162
 Frc consts  --      0.0149                 0.0196                 0.0351
 IR Inten    --      4.0617                 0.8878                 0.7629

                      4                      5                      6
                      A                      A                      A
 Frequencies --    114.9730               137.3558               140.7760
 Red. masses --      8.0951                 7.6525                 6.8933
 Frc consts  --      0.0630                 0.0851                 0.0805
 IR Inten    --      8.5754                 8.0181                 4.7129

                      7                      8                      9
                      A                      A                      A
 Frequencies --    200.1011               214.8925               252.5439
 Red. masses --      5.2221                 5.8673                 4.6425
 Frc consts  --      0.1232                 0.1596                 0.1745
 IR Inten    --     12.1307                 8.9376                 6.9769

                     10                     11                     12
                      A                      A                      A
 Frequencies --    299.2101               375.2093               393.3705
 Red. masses --      1.2644                 3.4953                 1.0711
 Frc consts  --      0.0667                 0.2899                 0.0976
 IR Inten    --     44.7535                23.6989                55.2674

                     13                     14                     15
                      A                      A                      A
 Frequencies --    419.1294               428.3487               549.2732
 Red. masses --      1.1675                 5.7307                 6.5062
 Frc consts  --      0.1208                 0.6195                 1.1565
 IR Inten    --     61.8980                 4.7048                23.6280

                     16                     17                     18
                      A                      A                      A
 Frequencies --    575.2863               586.9291               603.9078
 Red. masses --      1.6973                 1.2019                 2.0093
 Frc consts  --      0.3310                 0.2439                 0.4317
 IR Inten    --    116.2852                23.4021                12.1777

                     19                     20                     21
                      A                      A                      A
 Frequencies --    731.7889               765.4762               783.8608
 Red. masses --      1.1349                 2.8153                 6.4575
 Frc consts  --      0.3581                 0.9719                 2.3377
 IR Inten    --    449.7131                27.2793               128.7971

                     22                     23                     24
                      A                      A                      A
 Frequencies --    804.6294               872.8241               885.1310
 Red. masses --      1.8968                 1.9670                 1.2545
 Frc consts  --      0.7235                 0.8829                 0.5791
 IR Inten    --    209.8785                95.3353                11.3823

                     25                     26                     27
                      A                      A                      A
 Frequencies --    921.6979               967.0600              1096.4986
 Red. masses --      4.0099                 1.8499                 1.7562
 Frc consts  --      2.0070                 1.0193                 1.2440
 IR Inten    --     19.6028                22.3271                71.1875

                     28                     29                     30
                      A                      A                      A
 Frequencies --   1111.9029              1215.6342              1229.8094
 Red. masses --      1.4364                 3.8411                 6.7445
 Frc consts  --      1.0463                 3.3443                 6.0100
 IR Inten    --     15.3542                24.9395                59.7026

                     31                     32                     33
                      A                      A                      A
 Frequencies --   1299.6679              1321.6890              1402.4178
 Red. masses --      4.1125                 9.2080                 2.6139
 Frc consts  --      4.0928                 9.4770                 3.0289
 IR Inten    --     22.6138               764.2907                25.3748

                     34                     35                     36
                      A                      A                      A
 Frequencies --   1456.5504              1513.3851              1677.5531
 Red. masses --      1.7105                 3.5580                 1.0977
 Frc consts  --      2.1381                 4.8012                 1.8200
 IR Inten    --      0.7697                 6.9084               314.0398

                     37                     38                     39
                      A                      A                      A
 Frequencies --   1704.6897              1832.0573              3271.5289
 Red. masses --      1.0824                10.3964                 1.0935
 Frc consts  --      1.8532                20.5595                 6.8954
 IR Inten    --    170.6261               668.5636                15.9551

                     40                     41                     42
                      A                      A                      A
 Frequencies --   3317.1517              3425.3624              3570.4813
 Red. masses --      1.0990                 1.0814                 1.0626
 Frc consts  --      7.1246                 7.4754                 7.9816
 IR Inten    --      3.1413               243.5927               352.2327

                     43                     44                     45
                      A                      A                      A
 Frequencies --   3669.2927              3822.7667              3880.1979
 Red. masses --      1.0583                 1.0688                 1.0653
 Frc consts  --      8.3947                 9.2024                 9.4498
 IR Inten    --    414.4503               175.2660                65.4713

 - Thermochemistry -
 -------------------
 Temperature   298.150 Kelvin.  Pressure   1.00000 Atm.
 Atom     1 has atomic number  7 and mass  14.00307

 Molecular mass:   149.04366 amu.
 Principal axes and moments of inertia in atomic units:
                           1         2         3
     Eigenvalues --  1203.223601766.853142427.46888
           X            0.99977  -0.02156   0.00083
           Y            0.02157   0.99976  -0.00240
           Z           -0.00078   0.00242   1.00000
 This molecule is an asymmetric top.
 Rotational symmetry number  1.
 Warning -- assumption of classical behavior for rotation
           may cause significant error
 Rotational temperatures (Kelvin)      0.07198     0.04902     0.03568
 Rotational constants (GHZ):           1.49992     1.02144     0.74347
 Zero-point vibrational energy     323330.9 (Joules/Mol)
                                   77.27794 (Kcal/Mol)
 Warning -- explicit consideration of  18 degrees of freedom as
           vibrations may cause significant error
 Vibrational temperatures:     86.43   106.28   115.61   165.42   197.62
          (Kelvin)            202.55   287.90   309.18   363.35   430.50
                              539.84   565.97   603.03   616.30   790.28
                              827.71   844.46   868.89  1052.88  1101.35
                             1127.80  1157.68  1255.80  1273.51  1326.12
                             1391.38  1577.62  1599.78  1749.03  1769.42
                             1869.93  1901.62  2017.77  2095.65  2177.42
                             2413.62  2452.67  2635.92  4707.00  4772.64
                             4928.33  5137.13  5279.29  5500.11  5582.74

 Zero-point correction=                           0.123150 (Hartree/Particle)
 Thermal correction to Energy=                    0.134986
 Thermal correction to Enthalpy=                  0.135930
 Thermal correction to Gibbs Free Energy=         0.084465
 Sum of electronic and zero-point Energies=           -583.379996
 Sum of electronic and thermal Energies=              -583.368161
 Sum of electronic and thermal Enthalpies=            -583.367217
 Sum of electronic and thermal Free Energies=         -583.418681

                     E (Thermal)             CV                S
                      KCal/Mol        Cal/Mol-Kelvin    Cal/Mol-Kelvin
 Total                   84.705             41.201            108.316
 Electronic               0.000              0.000              1.377
 Translational            0.889              2.981             40.908
 Rotational               0.889              2.981             30.024
 Vibrational             82.927             35.239             36.007
 Vibration     1          0.597              1.973              4.455
 Vibration     2          0.599              1.966              4.048
 Vibration     3          0.600              1.962              3.882
 Vibration     4          0.608              1.937              3.183
 Vibration     5          0.614              1.916              2.840
 Vibration     6          0.615              1.913              2.793
 Vibration     7          0.638              1.840              2.132
 Vibration     8          0.645              1.818              2.002
 Vibration     9          0.664              1.758              1.713
 Vibration    10          0.692              1.675              1.421
 Vibration    11          0.746              1.523              1.058
 Vibration    12          0.761              1.484              0.987
 Vibration    13          0.782              1.429              0.895
 Vibration    14          0.790              1.409              0.864
 Vibration    15          0.905              1.141              0.546
 Vibration    16          0.932              1.085              0.494
 Vibration    17          0.944              1.060              0.473
 Vibration    18          0.962              1.024              0.443

                           ! Non-Optimized Parameters !
 Normal termination of Gaussian 16 at Tue Jun  6 00:40:10 2023.
