 Gaussian 16, Revision C.01,
 Gaussian 16:  ES64L-G16RevC.01  3-Jul-2019

 ----------------------------------------------------------------------
 # opt=(calcfc,ts,noeigentest,maxcycle=600) freq 6-31+g(d,p) integral=g
 rid=ultrafine m062x
 ----------------------------------------------------------------------

 --
 TS
 --
 Symbolic Z-matrix:
 Charge =  0 Multiplicity = 1

 SCF Done:  E(RM062X) =  -507.008387291     A.U. after   14 cycles
 SCF Done:  E(RM062X) =  -507.013612731     A.U. after   12 cycles
 SCF Done:  E(RM062X) =  -507.015747557     A.U. after   12 cycles
 SCF Done:  E(RM062X) =  -507.016338789     A.U. after   15 cycles
 SCF Done:  E(RM062X) =  -507.016619903     A.U. after   13 cycles
 SCF Done:  E(RM062X) =  -507.013119571     A.U. after   15 cycles
 SCF Done:  E(RM062X) =  -507.014857049     A.U. after   13 cycles
 SCF Done:  E(RM062X) =  -507.016491834     A.U. after   14 cycles
 SCF Done:  E(RM062X) =  -507.016832186     A.U. after   13 cycles
 SCF Done:  E(RM062X) =  -507.016860505     A.U. after   11 cycles
 SCF Done:  E(RM062X) =  -507.016796770     A.U. after   12 cycles
 SCF Done:  E(RM062X) =  -507.016871266     A.U. after   12 cycles
 SCF Done:  E(RM062X) =  -507.016872263     A.U. after   10 cycles
 SCF Done:  E(RM062X) =  -507.016872873     A.U. after    9 cycles
 SCF Done:  E(RM062X) =  -507.016872632     A.U. after   10 cycles
 SCF Done:  E(RM062X) =  -507.016872829     A.U. after    9 cycles
 Optimization completed.
    -- Stationary point found.
 Normal termination of Gaussian 16 at Wed Dec  6 11:55:36 2023.

 ----------------------------------------------------------------------
 #N Geom=AllCheck Guess=TCheck SCRF=Check GenChk RM062X/6-31+G(d,p) Fre
 q
 ----------------------------------------------------------------------

 Structure from the checkpoint file:  "/home/gau/soft/scratch/Gau-28622.chk"
 --
 TS
 --
 Charge =  0 Multiplicity = 1

                         Standard orientation:
 ---------------------------------------------------------------------
 Center     Atomic      Atomic             Coordinates (Angstroms)
 Number     Number       Type             X           Y           Z
 ---------------------------------------------------------------------
      1          8           0       -2.261195   -1.723007   -0.051815
      2          1           0       -3.005697   -1.106354    0.076650
      3          1           0       -2.180089   -2.309936    0.714795
      4          7           0        0.508163    0.359376    0.007708
      5          7           0        0.268547   -0.941720   -0.017917
      6          6           0        1.472821   -1.512248   -0.022361
      7          6           0        2.420389   -0.479230    0.003113
      8          7           0        1.772901    0.687621    0.020112
      9          1           0        1.597133   -2.584025   -0.046842
     10          1           0        3.498380   -0.522417    0.007088
     11          1           0       -1.396269   -0.998449   -0.084620
     12          6           0       -0.696041    1.308221   -0.005586
     13          8           0       -1.734511    0.601204   -0.057455
     14          8           0       -0.447262    2.482277    0.035845
 ---------------------------------------------------------------------

 SCF Done:  E(RM062X) =  -507.016872829     A.U. after    1 cycles

 The electronic state is 1-A.
 Alpha  occ. eigenvalues --  -19.79165 -19.62142 -19.60765 -14.87933 -14.83049
 Alpha  occ. eigenvalues --  -14.81283 -10.69103 -10.60333 -10.59067  -1.29042
 Alpha  occ. eigenvalues --   -1.25344  -1.18169  -1.10669  -1.01627  -0.93414
 Alpha  occ. eigenvalues --   -0.75464  -0.73750  -0.73309  -0.70462  -0.64338
 Alpha  occ. eigenvalues --   -0.59458  -0.58189  -0.56186  -0.54012  -0.53165
 Alpha  occ. eigenvalues --   -0.50350  -0.49292  -0.43458  -0.38937  -0.37307
 Alpha  occ. eigenvalues --   -0.36388  -0.34300  -0.33934  -0.33772
 Alpha virt. eigenvalues --   -0.01817   0.00428   0.02032   0.03144   0.04679
 Alpha virt. eigenvalues --    0.04968   0.05800   0.06108   0.07964   0.09026
 Alpha virt. eigenvalues --    0.09346   0.09625   0.10902   0.12036   0.13103

 Mulliken charges:
               1
     1  O   -0.613969
     2  H    0.471569
     3  H    0.433075
     4  N   -0.342753
     5  N   -0.120394
     6  C   -0.180763
     7  C   -0.142753
     8  N   -0.080589
     9  H    0.177425
    10  H    0.181825
    11  H    0.539730
    12  C    0.797729
    13  O   -0.660313
    14  O   -0.459819
 Sum of Mulliken charges =   0.00000

 Dipole moment (field-independent basis, Debye):
    X=             -2.0196    Y=             -9.2210    Z=              1.5261  Tot=              9.5621
 Quadrupole moment (field-independent basis, Debye-Ang):
   XX=            -38.2001   YY=            -55.0865   ZZ=            -51.9191
   XY=              7.2758   XZ=             -4.1584   YZ=             -4.1018

  Exact polarizability:      84.293      -2.185      83.219      -0.157      -0.263      41.164
 Approx polarizability:      96.890       1.617     104.987       0.289       0.077      52.191

 ******    1 imaginary frequencies (negative Signs) ******

                      1                      2                      3
                      A                      A                      A
 Frequencies --  -1035.8042                78.3039               108.3378
 Red. masses --      1.0885                 6.2285                 7.5261
 Frc consts  --      0.6881                 0.0225                 0.0520
 IR Inten    --    334.5272                 9.8712                 1.8838

                      4                      5                      6
                      A                      A                      A
 Frequencies --    156.5238               170.1136               221.2401
 Red. masses --      5.8836                 3.8600                 1.1945
 Frc consts  --      0.0849                 0.0658                 0.0344
 IR Inten    --      1.7141                16.0451                63.7368

                      7                      8                      9
                      A                      A                      A
 Frequencies --    275.7373               388.6106               410.8965
 Red. masses --      5.0934                 4.1947                 6.2521
 Frc consts  --      0.2282                 0.3732                 0.6219
 IR Inten    --     13.0354                43.1058               110.4869

                     10                     11                     12
                      A                      A                      A
 Frequencies --    527.5161               566.0547               678.0721
 Red. masses --      1.2529                11.2732                 3.7225
 Frc consts  --      0.2054                 2.1282                 1.0084
 IR Inten    --    123.6463                 5.8940                 0.1182

                     13                     14                     15
                      A                      A                      A
 Frequencies --    693.8196               774.2579               778.5181
 Red. masses --     12.5489                12.5310                11.8468
 Frc consts  --      3.5592                 4.4260                 4.2305
 IR Inten    --      7.1537                20.4008               299.4943

                     16                     17                     18
                      A                      A                      A
 Frequencies --    848.8546               907.3988               983.2959
 Red. masses --      1.1891                 1.3701                 7.0514
 Frc consts  --      0.5048                 0.6646                 4.0169
 IR Inten    --     51.6360                 0.3338                 4.4995

                     19                     20                     21
                      A                      A                      A
 Frequencies --   1025.4697              1048.6063              1118.2063
 Red. masses --      1.8224                 1.5623                 2.3520
 Frc consts  --      1.1291                 1.0121                 1.7327
 IR Inten    --    145.6001               486.5049                21.3730

                     22                     23                     24
                      A                      A                      A
 Frequencies --   1202.1312              1283.4278              1329.2050
 Red. masses --      1.3530                 4.5952                 6.1335
 Frc consts  --      1.1520                 4.4597                 6.3847
 IR Inten    --     80.5860               423.0006               145.5084

                     25                     26                     27
                      A                      A                      A
 Frequencies --   1370.8541              1411.8324              1453.0158
 Red. masses --      5.7649                 8.0653                 1.3402
 Frc consts  --      6.3830                 9.4720                 1.6671
 IR Inten    --    155.4917                34.4583               436.5224

                     28                     29                     30
                      A                      A                      A
 Frequencies --   1481.0735              1516.8001              1567.1358
 Red. masses --      3.0693                 1.8667                 1.6795
 Frc consts  --      3.9669                 2.5304                 2.4303
 IR Inten    --     95.2011               661.8882               294.0141

                     31                     32                     33
                      A                      A                      A
 Frequencies --   1681.8095              1971.3553              3302.7110
 Red. masses --      1.1589                10.4921                 1.0936
 Frc consts  --      1.9313                24.0238                 7.0282
 IR Inten    --   1971.6972               415.0448                 0.0846

                     34                     35                     36
                      A                      A                      A
 Frequencies --   3319.6234              3744.5621              3883.3197
 Red. masses --      1.1055                 1.0469                 1.0803
 Frc consts  --      7.1779                 8.6491                 9.5984
 IR Inten    --      0.7149               118.1455               208.9388

 - Thermochemistry -
 -------------------
 Temperature   298.150 Kelvin.  Pressure   1.00000 Atm.
 Atom     1 has atomic number  8 and mass  15.99491

 Molecular mass:   131.03309 amu.
 Principal axes and moments of inertia in atomic units:
                           1         2         3
     Eigenvalues --   850.132201126.587101972.14211
           X            0.99874   0.04980  -0.00554
           Y           -0.04984   0.99874  -0.00667
           Z            0.00520   0.00694   0.99996
 This molecule is an asymmetric top.
 Rotational symmetry number  1.
 Warning -- assumption of classical behavior for rotation
           may cause significant error
 Rotational temperatures (Kelvin)      0.10188     0.07688     0.04392
 Rotational constants (GHZ):           2.12289     1.60195     0.91512
    1 imaginary frequencies ignored.
 Zero-point vibrational energy     252882.7 (Joules/Mol)
                                   60.44042 (Kcal/Mol)
 Warning -- explicit consideration of  10 degrees of freedom as
           vibrations may cause significant error
 Vibrational temperatures:    112.66   155.87   225.20   244.76   318.32
          (Kelvin)            396.72   559.12   591.19   758.98   814.43
                              975.59   998.25  1113.98  1120.11  1221.31
                             1305.54  1414.74  1475.42  1508.71  1608.85
                             1729.60  1846.57  1912.43  1972.35  2031.31
                             2090.57  2130.93  2182.34  2254.76  2419.75
                             2836.34  4751.86  4776.20  5387.59  5587.23

 Zero-point correction=                           0.096318 (Hartree/Particle)
 Thermal correction to Energy=                    0.104599
 Thermal correction to Enthalpy=                  0.105544
 Thermal correction to Gibbs Free Energy=         0.062657
 Sum of electronic and zero-point Energies=           -506.920555
 Sum of electronic and thermal Energies=              -506.912273
 Sum of electronic and thermal Enthalpies=            -506.911329
 Sum of electronic and thermal Free Energies=         -506.954215

                     E (Thermal)             CV                S
                      KCal/Mol        Cal/Mol-Kelvin    Cal/Mol-Kelvin
 Total                   65.637             28.963             90.262
 Electronic               0.000              0.000              0.000
 Translational            0.889              2.981             40.524
 Rotational               0.889              2.981             29.025
 Vibrational             63.860             23.001             20.712
 Vibration     1          0.600              1.964              3.933
 Vibration     2          0.606              1.943              3.298
 Vibration     3          0.620              1.895              2.591
 Vibration     4          0.625              1.879              2.434
 Vibration     5          0.648              1.809              1.949
 Vibration     6          0.677              1.718              1.560
 Vibration     7          0.757              1.495              1.005
 Vibration     8          0.775              1.447              0.923
 Vibration     9          0.882              1.189              0.593
 Vibration    10          0.922              1.105              0.512

 Optimization completed.
    -- Stationary point found.
 Normal termination of Gaussian 16 at Wed Dec  6 11:56:15 2023.
