 Gaussian 16, Revision A.03,
 Gaussian 16:  ES64L-G16RevA.03 25-Dec-2016

 ----------------------------
 # opt freq 6-31+g(d,p) m062x
 ----------------------------

 ----
 test
 ----
 Symbolic Z-matrix:
 Charge =  0 Multiplicity = 1

 SCF Done:  E(RM062X) =  -242.019170128     A.U. after   14 cycles
 SCF Done:  E(RM062X) =  -242.089366215     A.U. after   13 cycles
 SCF Done:  E(RM062X) =  -242.136619444     A.U. after   14 cycles
 SCF Done:  E(RM062X) =  -242.138582930     A.U. after   12 cycles
 SCF Done:  E(RM062X) =  -242.138967609     A.U. after   11 cycles
 SCF Done:  E(RM062X) =  -242.131918874     A.U. after   13 cycles
 SCF Done:  E(RM062X) =  -242.139046838     A.U. after   11 cycles
 SCF Done:  E(RM062X) =  -242.137899962     A.U. after   12 cycles
 SCF Done:  E(RM062X) =  -242.138847939     A.U. after   11 cycles
 SCF Done:  E(RM062X) =  -242.139064973     A.U. after    7 cycles
 SCF Done:  E(RM062X) =  -242.139083897     A.U. after   10 cycles
 SCF Done:  E(RM062X) =  -242.139085398     A.U. after    9 cycles
 SCF Done:  E(RM062X) =  -242.139085382     A.U. after    8 cycles
 Optimization completed.
    -- Stationary point found.
 Normal termination of Gaussian 16 at Sun May  7 22:20:54 2023.

 ----------------------------------------------------------------------
 #N Geom=AllCheck Guess=TCheck SCRF=Check GenChk RM062X/6-31+G(d,p) Fre
 q
 ----------------------------------------------------------------------

 Structure from the checkpoint file:  "/scratch/gongke2021/1-H-Tz/Gau-30698.chk"
 ----
 test
 ----
 Charge =  0 Multiplicity = 1

                         Standard orientation:
 ---------------------------------------------------------------------
 Center     Atomic      Atomic             Coordinates (Angstroms)
 Number     Number       Type             X           Y           Z
 ---------------------------------------------------------------------
      1          7           0        0.503615   -1.057939   -0.000051
      2          7           0        1.052150    0.161166    0.000463
      3          6           0        0.110762    1.132222    0.000109
      4          6           0       -1.069261    0.429507   -0.000244
      5          7           0       -0.779847   -0.901707   -0.000203
      6          1           0        0.347666    2.183601    0.000261
      7          1           0       -2.085892    0.788303    0.000274
      8          1           0        2.057787    0.247082   -0.001189
 ---------------------------------------------------------------------

 SCF Done:  E(RM062X) =  -242.139085382     A.U. after    1 cycles

 The electronic state is 1-A.
 Alpha  occ. eigenvalues --  -14.86552 -14.83312 -14.79175 -10.60964 -10.58142
 Alpha  occ. eigenvalues --   -1.23070  -1.01986  -0.91543  -0.74126  -0.71667
 Alpha  occ. eigenvalues --   -0.65454  -0.55667  -0.53876  -0.52242  -0.41504
 Alpha  occ. eigenvalues --   -0.37285  -0.34621  -0.32864
 Alpha virt. eigenvalues --    0.00330   0.02593   0.03374   0.04057   0.06314
 Alpha virt. eigenvalues --    0.06885   0.07186   0.08278   0.10085   0.12190
 Alpha virt. eigenvalues --    0.13796   0.14480   0.14920   0.18241   0.20545

 Mulliken charges:
               1
     1  N   -0.002976
     2  N   -0.249862
     3  C   -0.102106
     4  C   -0.195562
     5  N   -0.176264
     6  H    0.196408
     7  H    0.177374
     8  H    0.352988
 Sum of Mulliken charges =  -0.00000

 Dipole moment (field-independent basis, Debye):
    X=              2.0637    Y=              4.1486    Z=             -0.0014  Tot=              4.6336
 Quadrupole moment (field-independent basis, Debye-Ang):
   XX=            -23.1933   YY=            -30.8187   ZZ=            -30.8106
   XY=             -0.0913   XZ=             -0.0067   YZ=             -0.0003

  Exact polarizability:  47.819   0.301  47.426   0.003   0.001  26.659
 Approx polarizability:  62.798   1.212  62.377   0.010   0.002  32.696

                      1                      2                      3
                      A                      A                      A
 Frequencies --    613.4458               670.5950               738.6903
 Red. masses --      2.2845                 1.7940                 3.9318
 Frc consts  --      0.5065                 0.4753                 1.2640
 IR Inten    --     49.8211                43.7570                 8.9323

                      4                      5                      6
                      A                      A                      A
 Frequencies --    793.2241               890.2122               960.8198
 Red. masses --      1.2157                 1.3301                 5.3239
 Frc consts  --      0.4507                 0.6210                 2.8957
 IR Inten    --     62.6783                 4.8370                 2.2604

                      7                      8                      9
                      A                      A                      A
 Frequencies --    988.1094              1081.9409              1125.4567
 Red. masses --      2.8703                 2.4815                 1.3556
 Frc consts  --      1.6511                 1.7115                 1.0117
 IR Inten    --      1.1702                28.3552                33.7543

                     10                     11                     12
                      A                      A                      A
 Frequencies --   1166.0784              1211.7698              1361.2206
 Red. masses --      2.1087                 4.4000                 8.4271
 Frc consts  --      1.6893                 3.8067                 9.2000
 IR Inten    --      2.5128                10.3479                22.8344

                     13                     14                     15
                      A                      A                      A
 Frequencies --   1405.3714              1493.1087              1582.1714
 Red. masses --      2.1755                 3.6992                 3.2503
 Frc consts  --      2.5315                 4.8589                 4.7938
 IR Inten    --      2.0498                 0.0314                 5.8611

                     16                     17                     18
                      A                      A                      A
 Frequencies --   3317.4287              3336.9391              3696.4005
 Red. masses --      1.0928                 1.1086                 1.0836
 Frc consts  --      7.0862                 7.2733                 8.7233
 IR Inten    --      1.7879                 0.6398               114.3233

 - Thermochemistry -
 -------------------
 Temperature   298.150 Kelvin.  Pressure   1.00000 Atm.
 Atom     1 has atomic number  7 and mass  14.00307

 Molecular mass:    69.03270 amu.
 Principal axes and moments of inertia in atomic units:
                           1         2         3
     Eigenvalues --   178.26123 180.89238 359.15357
           X            0.62868   0.77766  -0.00018
           Y            0.77766  -0.62868  -0.00010
           Z            0.00019   0.00008   1.00000
 This molecule is an asymmetric top.
 Rotational symmetry number  1.
 Rotational temperatures (Kelvin)      0.48588     0.47881     0.24116
 Rotational constants (GHZ):          10.12414     9.97688     5.02498
 Zero-point vibrational energy     158104.3 (Joules/Mol)
                                   37.78785 (Kcal/Mol)
 Warning -- explicit consideration of   1 degrees of freedom as
           vibrations may cause significant error
 Vibrational temperatures:    882.61   964.84  1062.81  1141.27  1280.82
          (Kelvin)           1382.41  1421.67  1556.67  1619.28  1677.73
                             1743.47  1958.49  2022.02  2148.25  2276.39
                             4773.04  4801.11  5318.30

 Zero-point correction=                           0.060219 (Hartree/Particle)
 Thermal correction to Energy=                    0.063754
 Thermal correction to Enthalpy=                  0.064698
 Thermal correction to Gibbs Free Energy=         0.034078
 Sum of electronic and zero-point Energies=           -242.078867
 Sum of electronic and thermal Energies=              -242.075331
 Sum of electronic and thermal Enthalpies=            -242.074387
 Sum of electronic and thermal Free Energies=         -242.105007

                     E (Thermal)             CV                S
                      KCal/Mol        Cal/Mol-Kelvin    Cal/Mol-Kelvin
 Total                   40.006             11.934             64.446
 Electronic               0.000              0.000              0.000
 Translational            0.889              2.981             38.613
 Rotational               0.889              2.981             23.964
 Vibrational             38.229              5.973              1.868
 Vibration     1          0.973              1.003              0.427

 Optimization completed.
    -- Stationary point found.
 Normal termination of Gaussian 16 at Sun May  7 22:21:16 2023.
