 Gaussian 16, Revision A.03,
 Gaussian 16:  ES64L-G16RevA.03 25-Dec-2016

 ----------------------------
 # opt freq 6-31+g(d,p) m062x
 ----------------------------

 ----
 test
 ----
 Symbolic Z-matrix:
 Charge =  0 Multiplicity = 1

 SCF Done:  E(RM062X) =  -583.476665801     A.U. after   15 cycles
 SCF Done:  E(RM062X) =  -583.476596275     A.U. after   12 cycles
 SCF Done:  E(RM062X) =  -583.476515884     A.U. after   12 cycles
 SCF Done:  E(RM062X) =  -583.476410105     A.U. after   12 cycles
 SCF Done:  E(RM062X) =  -583.476665833     A.U. after    5 cycles
 SCF Done:  E(RM062X) =  -583.476666802     A.U. after   10 cycles
 SCF Done:  E(RM062X) =  -583.476651302     A.U. after   11 cycles
 SCF Done:  E(RM062X) =  -583.476665094     A.U. after   11 cycles
 SCF Done:  E(RM062X) =  -583.476666165     A.U. after   10 cycles
 SCF Done:  E(RM062X) =  -583.476666969     A.U. after   10 cycles
 SCF Done:  E(RM062X) =  -583.476667024     A.U. after    9 cycles
 SCF Done:  E(RM062X) =  -583.476667373     A.U. after    9 cycles
 Optimization completed.
    -- Stationary point found.
 Normal termination of Gaussian 16 at Fri May 26 15:25:39 2023.

 ----------------------------------------------------------------------
 #N Geom=AllCheck Guess=TCheck SCRF=Check GenChk RM062X/6-31+G(d,p) Fre
 q
 ----------------------------------------------------------------------

 Structure from the checkpoint file:  "/scratch/gongke2021/PC/Gau-8683.chk"
 ----
 test
 ----
 Charge =  0 Multiplicity = 1

                         Standard orientation:
 ---------------------------------------------------------------------
 Center     Atomic      Atomic             Coordinates (Angstroms)
 Number     Number       Type             X           Y           Z
 ---------------------------------------------------------------------
      1          7           0       -0.939361    0.024064   -0.035670
      2          7           0        0.031566   -0.874458   -0.181785
      3          6           0       -0.564557   -2.032920    0.057064
      4          6           0       -1.920078   -1.776577    0.346843
      5          7           0       -2.124921   -0.471108    0.274715
      6          1           0       -0.019797   -2.963927    0.011129
      7          1           0       -2.720830   -2.454685    0.597545
      8          1           0        1.861852   -0.953635   -1.008877
      9          6           0       -0.742141    1.457753   -0.232488
     10          8           0       -1.676716    2.146259   -0.505185
     11          8           0        0.502314    1.836285   -0.104839
     12          8           0        2.276777    0.551024    1.256131
     13          1           0        1.124974    1.220743    0.397145
     14          1           0        2.907939    1.188478    1.606557
     15          8           0        2.829785   -0.907825   -0.928888
     16          1           0        2.763681   -0.050494    0.659703
     17          1           0        3.214576   -1.631454   -1.430288
 ---------------------------------------------------------------------

 SCF Done:  E(RM062X) =  -583.476667373     A.U. after    1 cycles

 The electronic state is 1-A.
 Alpha  occ. eigenvalues --  -19.68805 -19.67783 -19.67029 -19.64774 -14.90425
 Alpha  occ. eigenvalues --  -14.84003 -14.82883 -10.73434 -10.61294 -10.60531
 Alpha  occ. eigenvalues --   -1.27842  -1.23008  -1.17130  -1.15845  -1.14993
 Alpha  occ. eigenvalues --   -1.03147  -0.96448  -0.77733  -0.74605  -0.71275
 Alpha  occ. eigenvalues --   -0.67170  -0.65077  -0.62426  -0.60534  -0.57659
 Alpha  occ. eigenvalues --   -0.55619  -0.53847  -0.53140  -0.52063  -0.49080
 Alpha  occ. eigenvalues --   -0.46275  -0.43369  -0.42930  -0.42113  -0.40025
 Alpha  occ. eigenvalues --   -0.39864  -0.38443  -0.37848  -0.35350
 Alpha virt. eigenvalues --   -0.01828   0.00175   0.02549   0.03095   0.04302
 Alpha virt. eigenvalues --    0.05038   0.05964   0.06059   0.07428   0.07586
 Alpha virt. eigenvalues --    0.08763   0.09067   0.10184   0.10760   0.11762

 Mulliken charges:
               1
     1  N   -0.243935
     2  N   -0.183517
     3  C   -0.089048
     4  C   -0.182664
     5  N   -0.044360
     6  H    0.185329
     7  H    0.188198
     8  H    0.431935
     9  C    0.712448
    10  O   -0.382995
    11  O   -0.515951
    12  O   -0.825773
    13  H    0.486390
    14  H    0.412488
    15  O   -0.806907
    16  H    0.456052
    17  H    0.402308
 Sum of Mulliken charges =  -0.00000

 Dipole moment (field-independent basis, Debye):
    X=              3.9581    Y=             -5.4736    Z=              0.4944  Tot=              6.7728
 Quadrupole moment (field-independent basis, Debye-Ang):
   XX=            -54.8077   YY=            -55.0648   ZZ=            -57.4711
   XY=              6.6321   XZ=             -0.6648   YZ=              6.5104

  Exact polarizability:  86.665  -0.919  90.231  -1.620  -3.167  51.860
 Approx polarizability: 103.068  -4.851 106.775  -2.707  -4.325  62.620

 ******    1 imaginary frequencies (negative Signs) ******

                      1                      2                      3
                      A                      A                      A
 Frequencies --    -10.1462                44.0227                48.6229
 Red. masses --      1.1657                 8.6871                 5.0364
 Frc consts  --      0.0001                 0.0099                 0.0070
 IR Inten    --    108.9559                16.0548                 6.1728

                      4                      5                      6
                      A                      A                      A
 Frequencies --     82.9143               110.7494               147.9908
 Red. masses --      6.7863                 6.7685                 4.1122
 Frc consts  --      0.0275                 0.0489                 0.0531
 IR Inten    --      0.9941                 6.7426                16.0743

                      7                      8                      9
                      A                      A                      A
 Frequencies --    168.2426               205.8192               238.6233
 Red. masses --      6.4721                 5.6248                 2.1213
 Frc consts  --      0.1079                 0.1404                 0.0712
 IR Inten    --      3.0794                36.8252                35.5073

                     10                     11                     12
                      A                      A                      A
 Frequencies --    254.6395               291.4024               375.9639
 Red. masses --      4.5179                 1.7123                 1.1498
 Frc consts  --      0.1726                 0.0857                 0.0958
 IR Inten    --     28.7161               131.6255               122.4849

                     13                     14                     15
                      A                      A                      A
 Frequencies --    430.1646               457.1585               563.1057
 Red. masses --      1.4826                 3.2387                 6.2103
 Frc consts  --      0.1616                 0.3988                 1.1602
 IR Inten    --     19.8750                33.6558                 9.8151

                     16                     17                     18
                      A                      A                      A
 Frequencies --    589.3385               677.8682               679.2002
 Red. masses --      1.1215                 1.3568                 2.8930
 Frc consts  --      0.2295                 0.3673                 0.7863
 IR Inten    --    140.5667                76.3735                12.6810

                     19                     20                     21
                      A                      A                      A
 Frequencies --    690.4325               770.1091               775.3559
 Red. masses --      5.2222                 8.9671                 9.3046
 Frc consts  --      1.4667                 3.1333                 3.2957
 IR Inten    --     32.9575                80.0611                57.2636

                     22                     23                     24
                      A                      A                      A
 Frequencies --    862.7965               918.3427               981.6074
 Red. masses --      1.1851                 1.3903                 7.4095
 Frc consts  --      0.5198                 0.6908                 4.2065
 IR Inten    --     45.2491                 0.3235                21.8180

                     25                     26                     27
                      A                      A                      A
 Frequencies --   1015.3601              1056.6179              1098.8726
 Red. masses --      2.8685                 1.0761                 1.9965
 Frc consts  --      1.7424                 0.7079                 1.4204
 IR Inten    --     42.6776               160.6024                23.9169

                     28                     29                     30
                      A                      A                      A
 Frequencies --   1208.0981              1289.7897              1335.4660
 Red. masses --      1.3738                 3.5979                 5.9223
 Frc consts  --      1.1814                 3.5264                 6.2231
 IR Inten    --     16.5960                32.8103               135.0570

                     31                     32                     33
                      A                      A                      A
 Frequencies --   1351.9320              1371.7974              1407.1008
 Red. masses --      1.6946                 7.1790                 4.1131
 Frc consts  --      1.8249                 7.9597                 4.7981
 IR Inten    --    337.5262                44.7124               500.7176

                     34                     35                     36
                      A                      A                      A
 Frequencies --   1480.1937              1570.4142              1595.0689
 Red. masses --      4.3925                 5.4219                 1.0946
 Frc consts  --      5.6702                 7.8783                 1.6408
 IR Inten    --     17.5707                 4.5562                80.9481

                     37                     38                     39
                      A                      A                      A
 Frequencies --   1650.4505              1957.3446              2992.1226
 Red. masses --      1.0728                11.2761                 1.0838
 Frc consts  --      1.7217                25.4532                 5.7169
 IR Inten    --     91.1179               516.0470              1647.4110

                     40                     41                     42
                      A                      A                      A
 Frequencies --   3302.3420              3320.6830              3655.1333
 Red. masses --      1.0951                 1.1045                 1.0586
 Frc consts  --      7.0364                 7.1759                 8.3324
 IR Inten    --      0.0197                 0.0512               341.2652

                     43                     44                     45
                      A                      A                      A
 Frequencies --   3739.3340              3946.6134              3979.0065
 Red. masses --      1.0545                 1.0710                 1.0745
 Frc consts  --      8.6875                 9.8283                10.0229
 IR Inten    --    526.3106               136.0108               178.0281

 - Thermochemistry -
 -------------------
 Temperature   298.150 Kelvin.  Pressure   1.00000 Atm.
 Atom     1 has atomic number  7 and mass  14.00307

 Molecular mass:   149.04366 amu.
 Principal axes and moments of inertia in atomic units:
                           1         2         3
     Eigenvalues --  1239.776101722.106832579.53310
           X            0.99955   0.02983  -0.00274
           Y           -0.02978   0.99941   0.01700
           Z            0.00324  -0.01691   0.99985
 This molecule is an asymmetric top.
 Rotational symmetry number  1.
 Warning -- assumption of classical behavior for rotation
           may cause significant error
 Rotational temperatures (Kelvin)      0.06986     0.05030     0.03358
 Rotational constants (GHZ):           1.45570     1.04798     0.69964
    1 imaginary frequencies ignored.
 Zero-point vibrational energy     327108.1 (Joules/Mol)
                                   78.18072 (Kcal/Mol)
 Warning -- explicit consideration of  15 degrees of freedom as
           vibrations may cause significant error
 Vibrational temperatures:     63.34    69.96   119.30   159.34   212.93
          (Kelvin)            242.06   296.13   343.33   366.37   419.26
                              540.93   618.91   657.75   810.18   847.93
                              975.30   977.22   993.38  1108.02  1115.56
                             1241.37  1321.29  1412.31  1460.88  1520.24
                             1581.03  1738.18  1855.72  1921.44  1945.13
                             1973.71  2024.50  2129.67  2259.48  2294.95
                             2374.63  2816.18  4305.00  4751.33  4777.72
                             5258.92  5380.07  5678.30  5724.90

 Zero-point correction=                           0.124589 (Hartree/Particle)
 Thermal correction to Energy=                    0.135885
 Thermal correction to Enthalpy=                  0.136829
 Thermal correction to Gibbs Free Energy=         0.086394
 Sum of electronic and zero-point Energies=           -583.352078
 Sum of electronic and thermal Energies=              -583.340782
 Sum of electronic and thermal Enthalpies=            -583.339838
 Sum of electronic and thermal Free Energies=         -583.390273

                     E (Thermal)             CV                S
                      KCal/Mol        Cal/Mol-Kelvin    Cal/Mol-Kelvin
 Total                   85.269             38.550            106.149
 Electronic               0.000              0.000              0.000
 Translational            0.889              2.981             40.908
 Rotational               0.889              2.981             30.089
 Vibrational             83.492             32.589             35.153
 Vibration     1          0.595              1.980              5.069
 Vibration     2          0.595              1.978              4.873
 Vibration     3          0.600              1.961              3.821
 Vibration     4          0.607              1.941              3.256
 Vibration     5          0.617              1.905              2.698
 Vibration     6          0.625              1.882              2.455
 Vibration     7          0.640              1.832              2.080
 Vibration     8          0.657              1.781              1.813
 Vibration     9          0.665              1.755              1.698
 Vibration    10          0.687              1.690              1.466
 Vibration    11          0.747              1.521              1.055
 Vibration    12          0.791              1.405              0.858
 Vibration    13          0.815              1.345              0.774
 Vibration    14          0.919              1.111              0.518
 Vibration    15          0.947              1.055              0.468

                           ! Non-Optimized Parameters !
 Normal termination of Gaussian 16 at Fri May 26 15:26:23 2023.
