 Gaussian 16, Revision A.03,
 Gaussian 16:  ES64L-G16RevA.03 25-Dec-2016

 ----------------------------------------------------------------------
 # opt=(calcfc,ts,noeigentest) freq 6-31+g(d,p) integral=grid=ultrafine
  m062x
 ----------------------------------------------------------------------

 --
 RC
 --
 Symbolic Z-matrix:
 Charge = -1 Multiplicity = 2

 SCF Done:  E(UM062X) =  -430.616516508     A.U. after   19 cycles
 SCF Done:  E(UM062X) =  -430.632814128     A.U. after   18 cycles
 SCF Done:  E(UM062X) =  -430.644910568     A.U. after   18 cycles
 SCF Done:  E(UM062X) =  -430.647683573     A.U. after   18 cycles
 SCF Done:  E(UM062X) =  -430.647576751     A.U. after   17 cycles
 SCF Done:  E(UM062X) =  -430.648490116     A.U. after   16 cycles
 SCF Done:  E(UM062X) =  -430.648510502     A.U. after   14 cycles
 SCF Done:  E(UM062X) =  -430.648513849     A.U. after   13 cycles
 SCF Done:  E(UM062X) =  -430.648514318     A.U. after   12 cycles
 Optimization completed.
    -- Stationary point found.
 Normal termination of Gaussian 16 at Tue May  9 15:32:32 2023.

 ----------------------------------------------------------------------
 #N Geom=AllCheck Guess=TCheck SCRF=Check GenChk UM062X/6-31+G(d,p) Fre
 q
 ----------------------------------------------------------------------

 Structure from the checkpoint file:  "/scratch/gongke2021/TS/Gau-9840.chk"
 --
 RC
 --
 Charge = -1 Multiplicity = 2

                         Standard orientation:
 ---------------------------------------------------------------------
 Center     Atomic      Atomic             Coordinates (Angstroms)
 Number     Number       Type             X           Y           Z
 ---------------------------------------------------------------------
      1          7           0        0.010038   -0.202802    0.466036
      2          7           0       -0.647008    1.040099    0.345314
      3          6           0       -1.885968    0.706324   -0.147734
      4          6           0       -1.949156   -0.672684   -0.255101
      5          7           0       -0.790934   -1.266585    0.090756
      6          1           0       -2.641668    1.454962   -0.332895
      7          1           0       -2.789727   -1.276498   -0.573661
      8          1           0        0.399721    1.560625   -0.081810
      9          6           0        1.375192   -0.061449   -0.011172
     10          8           0        1.597989    1.195007   -0.252347
     11          8           0        2.125335   -1.015908   -0.102945
 ---------------------------------------------------------------------

 SCF Done:  E(UM062X) =  -430.648514318     A.U. after    1 cycles

 The electronic state is 2-A.
 Alpha  occ. eigenvalues --  -19.47141 -19.44853 -14.67522 -14.62960 -14.61700
 Alpha  occ. eigenvalues --  -10.52431 -10.42479 -10.42268  -1.06029  -0.99205
 Alpha  occ. eigenvalues --   -0.94553  -0.81682  -0.75899  -0.58387  -0.54182
 Alpha  occ. eigenvalues --   -0.47837  -0.45308  -0.41315  -0.37119  -0.36382
 Alpha  occ. eigenvalues --   -0.34109  -0.31796  -0.31026  -0.23623  -0.21479
 Alpha  occ. eigenvalues --   -0.20431  -0.18915  -0.17929  -0.17722  -0.01843
 Alpha virt. eigenvalues --    0.13599   0.14205   0.16839   0.18121   0.18951
 Alpha virt. eigenvalues --    0.19131   0.19463   0.21391   0.21501   0.21876
 Alpha virt. eigenvalues --    0.25601   0.26086   0.26407   0.28311   0.29330

  Beta  occ. eigenvalues --  -19.47122 -19.44788 -14.67195 -14.62475 -14.61155
  Beta  occ. eigenvalues --  -10.52368 -10.42386 -10.42297  -1.05435  -0.98444
  Beta  occ. eigenvalues --   -0.94335  -0.80073  -0.75021  -0.57262  -0.53614
  Beta  occ. eigenvalues --   -0.46945  -0.44731  -0.39659  -0.36654  -0.36009
  Beta  occ. eigenvalues --   -0.33730  -0.31061  -0.29618  -0.22060  -0.19606
  Beta  occ. eigenvalues --   -0.19136  -0.17699  -0.15692  -0.15472
  Beta virt. eigenvalues --    0.12886   0.14137   0.14580   0.16481   0.17513
  Beta virt. eigenvalues --    0.18706   0.18938   0.19474   0.20291   0.20825
  Beta virt. eigenvalues --    0.21899   0.24854   0.26182   0.27051   0.27776

 Mulliken charges and spin densities:
               1          2
     1  N   -0.084605   0.121943
     2  N   -0.383585   0.255704
     3  C   -0.240558   0.263754
     4  C   -0.132011  -0.120382
     5  N   -0.253102   0.396789
     6  H    0.125094  -0.011153
     7  H    0.118511   0.003226
     8  H    0.422455   0.015661
     9  C    0.653660   0.038272
    10  O   -0.638514   0.006514
    11  O   -0.587346   0.029670
 Sum of Mulliken charges =  -1.00000   1.00000

 Dipole moment (field-independent basis, Debye):
    X=             -4.4669    Y=              2.0128    Z=             -0.4844  Tot=              4.9233
 Quadrupole moment (field-independent basis, Debye-Ang):
   XX=            -63.4472   YY=            -58.5541   ZZ=            -51.2043
   XY=              0.9397   XZ=              3.2611   YZ=              0.0008

  Exact polarizability:  95.600  -3.610  77.897   3.418   0.106  49.928
 Approx polarizability: 101.801  -6.228 103.765   4.247   0.522  60.680

 ******    1 imaginary frequencies (negative Signs) ******

                      1                      2                      3
                      A                      A                      A
 Frequencies --  -1240.6941               142.8286               146.8727
 Red. masses --      1.1292                 7.9169                 7.6467
 Frc consts  --      1.0241                 0.0952                 0.0972
 IR Inten    --   1502.6993                 7.5882                 1.4083

                      4                      5                      6
                      A                      A                      A
 Frequencies --    311.3344               500.5773               560.2083
 Red. masses --      7.9044                11.1326                 5.6360
 Frc consts  --      0.4514                 1.6436                 1.0421
 IR Inten    --      1.7073                 4.9390                 7.7066

                      7                      8                      9
                      A                      A                      A
 Frequencies --    611.5463               662.6701               673.4138
 Red. masses --      6.5546                 1.6227                 3.3644
 Frc consts  --      1.4443                 0.4198                 0.8989
 IR Inten    --      8.4680                69.1888                21.3929

                     10                     11                     12
                      A                      A                      A
 Frequencies --    791.6967               811.0533               857.1159
 Red. masses --     11.3720                11.2153                 1.2792
 Frc consts  --      4.1996                 4.3467                 0.5537
 IR Inten    --     25.9301               157.9058                 5.9822

                     13                     14                     15
                      A                      A                      A
 Frequencies --    894.4096               948.8848              1102.7727
 Red. masses --      5.0849                 6.9685                 1.4989
 Frc consts  --      2.3967                 3.6967                 1.0740
 IR Inten    --      9.1689                16.5315                28.9897

                     16                     17                     18
                      A                      A                      A
 Frequencies --   1108.4280              1174.0310              1211.0811
 Red. masses --      2.2490                 3.5220                 2.3056
 Frc consts  --      1.6280                 2.8602                 1.9924
 IR Inten    --     56.0131                32.7060                61.1339

                     19                     20                     21
                      A                      A                      A
 Frequencies --   1236.2178              1289.0799              1339.1947
 Red. masses --      1.9939                 7.3301                 7.4394
 Frc consts  --      1.7953                 7.1767                 7.8610
 IR Inten    --     46.2321                56.4575               904.6374

                     22                     23                     24
                      A                      A                      A
 Frequencies --   1403.4998              1502.6072              1846.2873
 Red. masses --      2.4107                 4.4179                 8.9540
 Frc consts  --      2.7978                 5.8771                17.9831
 IR Inten    --     47.0763                 4.2233               606.4686

                     25                     26                     27
                      A                      A                      A
 Frequencies --   2054.9127              3253.4693              3295.3698
 Red. masses --      1.0709                 1.0908                 1.0985
 Frc consts  --      2.6643                 6.8030                 7.0281
 IR Inten    --    167.8626                19.5290                15.7053

 - Thermochemistry -
 -------------------
 Temperature   298.150 Kelvin.  Pressure   1.00000 Atm.
 Atom     1 has atomic number  7 and mass  14.00307

 Molecular mass:   113.02253 amu.
 Principal axes and moments of inertia in atomic units:
                           1         2         3
     Eigenvalues --   366.67374 932.061501245.34512
           X            0.99995   0.00163   0.01004
           Y           -0.00164   1.00000   0.00120
           Z           -0.01003  -0.00122   0.99995
 This molecule is an asymmetric top.
 Rotational symmetry number  1.
 Rotational temperatures (Kelvin)      0.23622     0.09293     0.06955
 Rotational constants (GHZ):           4.92193     1.93629     1.44919
    1 imaginary frequencies ignored.
 Zero-point vibrational energy     177822.3 (Joules/Mol)
                                   42.50054 (Kcal/Mol)
 Warning -- explicit consideration of   6 degrees of freedom as
           vibrations may cause significant error
 Vibrational temperatures:    205.50   211.32   447.94   720.22   806.01
          (Kelvin)            879.88   953.43   968.89  1139.07  1166.92
                             1233.20  1286.86  1365.23  1586.64  1594.78
                             1689.17  1742.48  1778.64  1854.70  1926.80
                             2019.32  2161.92  2656.40  2956.56  4681.02
                             4741.30

 Zero-point correction=                           0.067729 (Hartree/Particle)
 Thermal correction to Energy=                    0.073538
 Thermal correction to Enthalpy=                  0.074482
 Thermal correction to Gibbs Free Energy=         0.036802
 Sum of electronic and zero-point Energies=           -430.580785
 Sum of electronic and thermal Energies=              -430.574977
 Sum of electronic and thermal Enthalpies=            -430.574032
 Sum of electronic and thermal Free Energies=         -430.611713

                     E (Thermal)             CV                S
                      KCal/Mol        Cal/Mol-Kelvin    Cal/Mol-Kelvin
 Total                   46.146             21.036             79.305
 Electronic               0.000              0.000              1.377
 Translational            0.889              2.981             40.083
 Rotational               0.889              2.981             27.545
 Vibrational             44.368             15.074             10.300
 Vibration     1          0.616              1.910              2.766
 Vibration     2          0.617              1.906              2.712
 Vibration     3          0.700              1.652              1.355
 Vibration     4          0.856              1.249              0.657
 Vibration     5          0.916              1.117              0.523
 Vibration     6          0.971              1.007              0.430

 Optimization completed.
    -- Stationary point found.
 Normal termination of Gaussian 16 at Tue May  9 15:33:59 2023.
