 Gaussian 16, Revision A.03,
 Gaussian 16:  ES64L-G16RevA.03 25-Dec-2016

 ----------------------------
 # opt freq 6-31+g(d,p) m062x
 ----------------------------

 --
 RC
 --
 Symbolic Z-matrix:
 Charge = -2 Multiplicity = 1

 SCF Done:  E(RM062X) =  -430.493956959     A.U. after   34 cycles
 SCF Done:  E(RM062X) =  -430.496332535     A.U. after   26 cycles
 SCF Done:  E(RM062X) =  -430.509234589     A.U. after   23 cycles
 SCF Done:  E(RM062X) =  -430.512677559     A.U. after   22 cycles
 SCF Done:  E(RM062X) =  -430.513886468     A.U. after   22 cycles
 SCF Done:  E(RM062X) =  -430.514291315     A.U. after   21 cycles
 SCF Done:  E(RM062X) =  -430.516079827     A.U. after   20 cycles
 SCF Done:  E(RM062X) =  -430.517022349     A.U. after   20 cycles
 SCF Done:  E(RM062X) =  -430.517336463     A.U. after   20 cycles
 SCF Done:  E(RM062X) =  -430.517522121     A.U. after   17 cycles
 SCF Done:  E(RM062X) =  -430.519500614     A.U. after   17 cycles
 SCF Done:  E(RM062X) =  -430.520001703     A.U. after   18 cycles
 SCF Done:  E(RM062X) =  -430.520278860     A.U. after   18 cycles
 SCF Done:  E(RM062X) =  -430.520405402     A.U. after   16 cycles
 SCF Done:  E(RM062X) =  -430.520445251     A.U. after   17 cycles
 SCF Done:  E(RM062X) =  -430.520463182     A.U. after   16 cycles
 SCF Done:  E(RM062X) =  -430.520470752     A.U. after   15 cycles
 SCF Done:  E(RM062X) =  -430.520471633     A.U. after   14 cycles
 SCF Done:  E(RM062X) =  -430.520471947     A.U. after   14 cycles
 Optimization completed.
    -- Stationary point found.
 Normal termination of Gaussian 16 at Tue Jul 25 11:14:37 2023.

 ----------------------------------------------------------------------
 #N Geom=AllCheck Guess=TCheck SCRF=Check GenChk RM062X/6-31+G(d,p) Fre
 q
 ----------------------------------------------------------------------

 Structure from the checkpoint file:  "/scratch/gongke2021/RC2-/Gau-18289.chk"
 --
 RC
 --
 Charge = -2 Multiplicity = 1

                         Standard orientation:
 ---------------------------------------------------------------------
 Center     Atomic      Atomic             Coordinates (Angstroms)
 Number     Number       Type             X           Y           Z
 ---------------------------------------------------------------------
      1          7           0        0.030337   -0.077750    0.424082
      2          7           0       -0.750276    1.134917    0.189681
      3          6           0       -2.133195    0.657119   -0.030595
      4          6           0       -1.911395   -0.754205   -0.262194
      5          7           0       -0.697399   -1.189290   -0.102655
      6          1           0       -2.802244    0.874752    0.820098
      7          1           0       -2.672984   -1.480974   -0.558942
      8          1           0       -0.369647    1.513835   -0.680790
      9          6           0        1.433591   -0.001569    0.031096
     10          8           0        1.840126    1.142879   -0.305753
     11          8           0        2.088903   -1.066731    0.107257
 ---------------------------------------------------------------------

 SCF Done:  E(RM062X) =  -430.520471947     A.U. after    1 cycles

 The electronic state is 1-A.
 Alpha  occ. eigenvalues --  -19.26492 -19.25896 -14.47780 -14.45121 -14.44874
 Alpha  occ. eigenvalues --  -10.33441 -10.25996 -10.21356  -0.84430  -0.78774
 Alpha  occ. eigenvalues --   -0.73148  -0.63127  -0.55946  -0.39405  -0.34735
 Alpha  occ. eigenvalues --   -0.27995  -0.22729  -0.21553  -0.18354  -0.16699
 Alpha  occ. eigenvalues --   -0.14688  -0.13437  -0.09786  -0.03978  -0.02197
 Alpha  occ. eigenvalues --   -0.00547   0.00745   0.01685   0.03068   0.12530
 Alpha virt. eigenvalues --    0.25243   0.28031   0.29522   0.30341   0.31372
 Alpha virt. eigenvalues --    0.31422   0.31974   0.33053   0.34312   0.34856
 Alpha virt. eigenvalues --    0.37902   0.39601   0.40789   0.43096   0.43860

 Mulliken charges:
               1
     1  N    0.015861
     2  N   -0.490234
     3  C   -0.553621
     4  C   -0.215003
     5  N   -0.316567
     6  H    0.056557
     7  H    0.053388
     8  H    0.306108
     9  C    0.558521
    10  O   -0.726243
    11  O   -0.688767
 Sum of Mulliken charges =  -2.00000

 Dipole moment (field-independent basis, Debye):
    X=             -1.5354    Y=             -1.2931    Z=              0.4271  Tot=              2.0524
 Quadrupole moment (field-independent basis, Debye-Ang):
   XX=            -95.7050   YY=            -72.7542   ZZ=            -57.2284
   XY=              8.5783   XZ=             -2.4908   YZ=              1.3394

  Exact polarizability: 133.656 -21.851 111.518   8.731  -7.972  78.352
 Approx polarizability: 128.664 -20.086 125.804   7.077  -7.447  85.789

                      1                      2                      3
                      A                      A                      A
 Frequencies --     77.5684               132.3911               257.7298
 Red. masses --      8.8948                 4.7660                 6.0936
 Frc consts  --      0.0315                 0.0492                 0.2385
 IR Inten    --      3.3135                 5.2879                23.0252

                      4                      5                      6
                      A                      A                      A
 Frequencies --    357.7583               416.3442               483.7173
 Red. masses --      3.6840                 3.0128                 5.3313
 Frc consts  --      0.2778                 0.3077                 0.7350
 IR Inten    --     27.6201               210.1055                41.3580

                      7                      8                      9
                      A                      A                      A
 Frequencies --    549.7519               702.6784               764.6402
 Red. masses --      7.7350                 2.6327                 4.6781
 Frc consts  --      1.3774                 0.7659                 1.6115
 IR Inten    --     11.7255               156.3082                51.2024

                     10                     11                     12
                      A                      A                      A
 Frequencies --    815.3369               832.6825               855.7744
 Red. masses --      3.4710                 8.8267                 2.6273
 Frc consts  --      1.3595                 3.6059                 1.1336
 IR Inten    --      9.6918                25.9471                65.8878

                     13                     14                     15
                      A                      A                      A
 Frequencies --    888.1432               974.8880              1031.9347
 Red. masses --      3.6195                 2.4997                 4.5233
 Frc consts  --      1.6821                 1.3998                 2.8380
 IR Inten    --     10.9767                44.8901               168.8250

                     16                     17                     18
                      A                      A                      A
 Frequencies --   1065.6730              1120.9828              1160.0631
 Red. masses --      2.0996                 2.9040                 4.0551
 Frc consts  --      1.4049                 2.1500                 3.2153
 IR Inten    --     16.5361                28.9216                60.9124

                     19                     20                     21
                      A                      A                      A
 Frequencies --   1246.6626              1305.6732              1365.8384
 Red. masses --      1.2329                 2.1632                 5.9639
 Frc consts  --      1.1289                 2.1728                 6.5551
 IR Inten    --      2.3917               233.9441               594.4829

                     22                     23                     24
                      A                      A                      A
 Frequencies --   1456.7833              1597.0467              1712.1303
 Red. masses --      1.1686                 8.0066                12.2367
 Frc consts  --      1.4612                12.0318                21.1343
 IR Inten    --     67.7299               164.6935               636.9017

                     25                     26                     27
                      A                      A                      A
 Frequencies --   2950.1604              3111.3056              3407.8647
 Red. masses --      1.0828                 1.0894                 1.0758
 Frc consts  --      5.5523                 6.2131                 7.3614
 IR Inten    --    230.8671               153.8252                11.5016

 - Thermochemistry -
 -------------------
 Temperature   298.150 Kelvin.  Pressure   1.00000 Atm.
 Atom     1 has atomic number  7 and mass  14.00307

 Molecular mass:   113.02253 amu.
 Principal axes and moments of inertia in atomic units:
                           1         2         3
     Eigenvalues --   362.325681013.766431325.01776
           X            0.99999   0.00492  -0.00194
           Y           -0.00490   0.99997   0.00576
           Z            0.00197  -0.00575   0.99998
 This molecule is an asymmetric top.
 Rotational symmetry number  1.
 Rotational temperatures (Kelvin)      0.23905     0.08544     0.06537
 Rotational constants (GHZ):           4.98099     1.78023     1.36205
 Zero-point vibrational energy     183277.0 (Joules/Mol)
                                   43.80426 (Kcal/Mol)
 Warning -- explicit consideration of   7 degrees of freedom as
           vibrations may cause significant error
 Vibrational temperatures:    111.60   190.48   370.82   514.73   599.03
          (Kelvin)            695.96   790.97  1011.00  1100.15  1173.09
                             1198.04  1231.27  1277.84  1402.65  1484.72
                             1533.27  1612.84  1669.07  1793.67  1878.57
                             1965.14  2095.99  2297.79  2463.37  4244.62
                             4476.47  4903.16

 Zero-point correction=                           0.069807 (Hartree/Particle)
 Thermal correction to Energy=                    0.076294
 Thermal correction to Enthalpy=                  0.077238
 Thermal correction to Gibbs Free Energy=         0.038617
 Sum of electronic and zero-point Energies=           -430.450665
 Sum of electronic and thermal Energies=              -430.444178
 Sum of electronic and thermal Enthalpies=            -430.443234
 Sum of electronic and thermal Free Energies=         -430.481855

                     E (Thermal)             CV                S
                      KCal/Mol        Cal/Mol-Kelvin    Cal/Mol-Kelvin
 Total                   47.875             23.026             81.285
 Electronic               0.000              0.000              0.000
 Translational            0.889              2.981             40.083
 Rotational               0.889              2.981             27.678
 Vibrational             46.098             17.065             13.524
 Vibration     1          0.599              1.964              3.951
 Vibration     2          0.613              1.921              2.911
 Vibration     3          0.667              1.750              1.677
 Vibration     4          0.733              1.559              1.132
 Vibration     5          0.780              1.435              0.904
 Vibration     6          0.840              1.286              0.700
 Vibration     7          0.905              1.140              0.545

 Optimization completed.
    -- Stationary point found.
 Normal termination of Gaussian 16 at Tue Jul 25 11:15:36 2023.
