 Gaussian 16, Revision A.03,
 Gaussian 16:  ES64L-G16RevA.03 25-Dec-2016

 ----------------------------------------------------------------------
 # opt=(calcfc,ts,noeigentest) freq 6-31+g(d,p) integral=grid=ultrafine
  m062x
 ----------------------------------------------------------------------

 ----------
 "Sketch 2"
 ----------
 Symbolic Z-matrix:
 Charge =  0 Multiplicity = 1

 SCF Done:  E(RM062X) =  -430.579131512     A.U. after   15 cycles
 SCF Done:  E(RM062X) =  -430.595901088     A.U. after   13 cycles
 SCF Done:  E(RM062X) =  -430.611100865     A.U. after   14 cycles
 SCF Done:  E(RM062X) =  -430.619745272     A.U. after   13 cycles
 SCF Done:  E(RM062X) =  -430.621641721     A.U. after   13 cycles
 SCF Done:  E(RM062X) =  -430.622291197     A.U. after   13 cycles
 SCF Done:  E(RM062X) =  -430.622529742     A.U. after   12 cycles
 SCF Done:  E(RM062X) =  -430.622570996     A.U. after   11 cycles
 SCF Done:  E(RM062X) =  -430.622595750     A.U. after   11 cycles
 SCF Done:  E(RM062X) =  -430.622626259     A.U. after   11 cycles
 SCF Done:  E(RM062X) =  -430.621370806     A.U. after   14 cycles
 SCF Done:  E(RM062X) =  -430.622565704     A.U. after   13 cycles
 SCF Done:  E(RM062X) =  -430.622687169     A.U. after   12 cycles
 SCF Done:  E(RM062X) =  -430.622696111     A.U. after   11 cycles
 SCF Done:  E(RM062X) =  -430.622696553     A.U. after   10 cycles
 SCF Done:  E(RM062X) =  -430.621066722     A.U. after   14 cycles
 SCF Done:  E(RM062X) =  -430.622545908     A.U. after   13 cycles
 SCF Done:  E(RM062X) =  -430.622684745     A.U. after   13 cycles
 SCF Done:  E(RM062X) =  -430.622696608     A.U. after   11 cycles
 Optimization completed.
    -- Stationary point found.
 Normal termination of Gaussian 16 at Fri Mar 10 01:48:57 2023.

 ----------------------------------------------------------------------
 #N Geom=AllCheck Guess=TCheck SCRF=Check GenChk RM062X/6-31+G(d,p) Fre
 q
 ----------------------------------------------------------------------

 Structure from the checkpoint file:  "/scratch/gongke2021/1-H-Tz-TS/Gau-12540.chk"
 ----------
 "Sketch 2"
 ----------
 Charge =  0 Multiplicity = 1

                         Standard orientation:
 ---------------------------------------------------------------------
 Center     Atomic      Atomic             Coordinates (Angstroms)
 Number     Number       Type             X           Y           Z
 ---------------------------------------------------------------------
      1          7           0       -0.052093   -0.237033    0.000877
      2          7           0       -0.621666    0.951067    0.000381
      3          6           0       -1.940313    0.758033   -0.000302
      4          6           0       -2.105156   -0.631030   -0.000386
      5          7           0       -0.895157   -1.218791    0.000224
      6          1           0       -2.649719    1.569619   -0.000733
      7          1           0       -3.011808   -1.215271   -0.000813
      8          1           0        0.369868    1.578649    0.000053
      9          6           0        1.558506   -0.052865   -0.000045
     10          8           0        1.694864    1.193807   -0.000217
     11          8           0        2.204617   -1.049373   -0.000343
 ---------------------------------------------------------------------

 SCF Done:  E(RM062X) =  -430.622696608     A.U. after    1 cycles

 The electronic state is 1-A.
 Alpha  occ. eigenvalues --  -19.66968 -19.65555 -14.91694 -14.88881 -14.85349
 Alpha  occ. eigenvalues --  -10.73502 -10.64945 -10.62766  -1.30562  -1.23059
 Alpha  occ. eigenvalues --   -1.16457  -1.06752  -0.97332  -0.78542  -0.76688
 Alpha  occ. eigenvalues --   -0.71672  -0.65606  -0.62520  -0.58605  -0.57276
 Alpha  occ. eigenvalues --   -0.55297  -0.53914  -0.53787  -0.43552  -0.42071
 Alpha  occ. eigenvalues --   -0.40334  -0.38631  -0.38396  -0.37541
 Alpha virt. eigenvalues --   -0.03128  -0.00409   0.01854   0.02468   0.02787
 Alpha virt. eigenvalues --    0.03889   0.05513   0.05837   0.06722   0.07558
 Alpha virt. eigenvalues --    0.09578   0.09808   0.09878   0.10495   0.13137

 Mulliken charges:
               1
     1  N   -0.167567
     2  N   -0.183760
     3  C   -0.145845
     4  C   -0.143271
     5  N   -0.020163
     6  H    0.212189
     7  H    0.198610
     8  H    0.464326
     9  C    0.776882
    10  O   -0.564881
    11  O   -0.426521
 Sum of Mulliken charges =   0.00000

 Dipole moment (field-independent basis, Debye):
    X=             -6.2806    Y=              2.5787    Z=             -0.0002  Tot=              6.7894
 Quadrupole moment (field-independent basis, Debye-Ang):
   XX=            -45.1483   YY=            -47.5750   ZZ=            -45.3313
   XY=             -0.7337   XZ=              0.0061   YZ=             -0.0003

  Exact polarizability:  79.800  -2.747  63.173   0.007   0.001  33.815
 Approx polarizability:  91.324  -5.283  90.336   0.013   0.001  42.994

 ******    1 imaginary frequencies (negative Signs) ******

                      1                      2                      3
                      A                      A                      A
 Frequencies --  -1127.1609               125.9084               149.2998
 Red. masses --      1.2021                 6.7992                 9.5164
 Frc consts  --      0.8999                 0.0635                 0.1250
 IR Inten    --   1044.6858                 0.5739                 0.4615

                      4                      5                      6
                      A                      A                      A
 Frequencies --    241.8547               520.1833               603.1569
 Red. masses --      8.9743                 7.4396                 7.9239
 Frc consts  --      0.3093                 1.1861                 1.6984
 IR Inten    --     62.9395                34.1367               186.4077

                      7                      8                      9
                      A                      A                      A
 Frequencies --    657.6020               686.9499               743.3966
 Red. masses --      3.8769                 9.5192                12.4929
 Frc consts  --      0.9878                 2.6467                 4.0678
 IR Inten    --      1.4768                 3.6624                18.5091

                     10                     11                     12
                      A                      A                      A
 Frequencies --    770.6410               842.9975               912.3028
 Red. masses --     11.8687                 1.1921                 1.3759
 Frc consts  --      4.1530                 0.4991                 0.6747
 IR Inten    --    566.3416                55.6281                 0.1098

                     13                     14                     15
                      A                      A                      A
 Frequencies --    989.5646              1041.1996              1128.6071
 Red. masses --      6.5617                 1.8995                 2.7343
 Frc consts  --      3.7858                 1.2132                 2.0520
 IR Inten    --     15.8701                10.5699                 4.8635

                     16                     17                     18
                      A                      A                      A
 Frequencies --   1140.9616              1202.3451              1249.4867
 Red. masses --      1.0571                 1.4806                 7.5313
 Frc consts  --      0.8108                 1.2611                 6.9276
 IR Inten    --     88.9935                13.6260               569.1388

                     19                     20                     21
                      A                      A                      A
 Frequencies --   1308.9347              1367.6563              1451.4147
 Red. masses --      8.1282                 6.6695                 6.7878
 Frc consts  --      8.2050                 7.3501                 8.4249
 IR Inten    --      3.1478                61.7383                45.0902

                     22                     23                     24
                      A                      A                      A
 Frequencies --   1490.3430              1547.6887              2052.7129
 Red. masses --      4.2626                 5.6845                10.0533
 Frc consts  --      5.5783                 8.0225                24.9583
 IR Inten    --      3.3965                 9.2431               537.0096

                     25                     26                     27
                      A                      A                      A
 Frequencies --   2239.3087              3317.9518              3336.0235
 Red. masses --      1.0871                 1.0955                 1.1061
 Frc consts  --      3.2119                 7.1056                 7.2529
 IR Inten    --    531.7751                 2.5246                 3.3267

 - Thermochemistry -
 -------------------
 Temperature   298.150 Kelvin.  Pressure   1.00000 Atm.
 Atom     1 has atomic number  7 and mass  14.00307

 Molecular mass:   113.02253 amu.
 Principal axes and moments of inertia in atomic units:
                           1         2         3
     Eigenvalues --   331.467871014.100641345.56836
           X            1.00000  -0.00004   0.00002
           Y            0.00004   1.00000  -0.00000
           Z           -0.00002   0.00000   1.00000
 This molecule is an asymmetric top.
 Rotational symmetry number  1.
 Rotational temperatures (Kelvin)      0.26130     0.08541     0.06437
 Rotational constants (GHZ):           5.44469     1.77965     1.34125
    1 imaginary frequencies ignored.
 Zero-point vibrational energy     186129.9 (Joules/Mol)
                                   44.48612 (Kcal/Mol)
 Warning -- explicit consideration of   5 degrees of freedom as
           vibrations may cause significant error
 Vibrational temperatures:    181.15   214.81   347.97   748.43   867.81
          (Kelvin)            946.14   988.37  1069.58  1108.78  1212.89
                             1312.60  1423.76  1498.05  1623.81  1641.59
                             1729.91  1797.73  1883.27  1967.75  2088.26
                             2144.27  2226.78  2953.40  3221.87  4773.79
                             4799.79

 Zero-point correction=                           0.070893 (Hartree/Particle)
 Thermal correction to Energy=                    0.076652
 Thermal correction to Enthalpy=                  0.077596
 Thermal correction to Gibbs Free Energy=         0.040467
 Sum of electronic and zero-point Energies=           -430.551803
 Sum of electronic and thermal Energies=              -430.546045
 Sum of electronic and thermal Enthalpies=            -430.545100
 Sum of electronic and thermal Free Energies=         -430.582230

                     E (Thermal)             CV                S
                      KCal/Mol        Cal/Mol-Kelvin    Cal/Mol-Kelvin
 Total                   48.100             20.191             78.146
 Electronic               0.000              0.000              0.000
 Translational            0.889              2.981             40.083
 Rotational               0.889              2.981             27.605
 Vibrational             46.322             14.229             10.458
 Vibration     1          0.611              1.927              3.008
 Vibration     2          0.618              1.903              2.681
 Vibration     3          0.658              1.776              1.789
 Vibration     4          0.875              1.205              0.610
 Vibration     5          0.962              1.025              0.444

 Optimization completed.
    -- Stationary point found.
 Normal termination of Gaussian 16 at Fri Mar 10 01:50:09 2023.
