 Gaussian 16, Revision A.03,
 Gaussian 16:  ES64L-G16RevA.03 25-Dec-2016

 ----------------------------------------------------------------------
 # opt=(calcfc,ts,noeigentest,maxcycle=600) freq 6-31+g(d,p) integral=g
 rid=ultrafine m062x
 ----------------------------------------------------------------------

 --
 TS
 --
 Symbolic Z-matrix:
 Charge = -1 Multiplicity = 2

 SCF Done:  E(UM062X) =  -507.009053501     A.U. after   27 cycles
 SCF Done:  E(UM062X) =  -507.014950444     A.U. after   21 cycles
 SCF Done:  E(UM062X) =  -507.017573572     A.U. after   21 cycles
 SCF Done:  E(UM062X) =  -507.018276872     A.U. after   19 cycles
 SCF Done:  E(UM062X) =  -507.018776885     A.U. after   19 cycles
 SCF Done:  E(UM062X) =  -507.018810985     A.U. after   20 cycles
 SCF Done:  E(UM062X) =  -507.018810534     A.U. after   18 cycles
 SCF Done:  E(UM062X) =  -507.017876911     A.U. after   20 cycles
 SCF Done:  E(UM062X) =  -507.018653847     A.U. after   19 cycles
 SCF Done:  E(UM062X) =  -507.018424098     A.U. after   22 cycles
 SCF Done:  E(UM062X) =  -507.018822489     A.U. after   16 cycles
 SCF Done:  E(UM062X) =  -507.018822318     A.U. after   15 cycles
 SCF Done:  E(UM062X) =  -507.018821994     A.U. after   16 cycles
 SCF Done:  E(UM062X) =  -507.018822381     A.U. after   14 cycles
 SCF Done:  E(UM062X) =  -507.018822788     A.U. after   13 cycles
 SCF Done:  E(UM062X) =  -507.018822936     A.U. after   15 cycles
 SCF Done:  E(UM062X) =  -507.018823075     A.U. after   15 cycles
 SCF Done:  E(UM062X) =  -507.018823199     A.U. after   15 cycles
 SCF Done:  E(UM062X) =  -507.018823253     A.U. after   15 cycles
 Optimization completed.
    -- Stationary point found.
 Normal termination of Gaussian 16 at Sun Jul  9 22:58:38 2023.

 ----------------------------------------------------------------------
 #N Geom=AllCheck Guess=TCheck SCRF=Check GenChk UM062X/6-31+G(d,p) Fre
 q
 ----------------------------------------------------------------------

 Structure from the checkpoint file:  "/scratch/gongke2021/TS-cycle/Gau-8587.chk"
 --
 TS
 --
 Charge = -1 Multiplicity = 2

                         Standard orientation:
 ---------------------------------------------------------------------
 Center     Atomic      Atomic             Coordinates (Angstroms)
 Number     Number       Type             X           Y           Z
 ---------------------------------------------------------------------
      1          8           0       -2.746994   -1.223084   -0.054583
      2          1           0       -3.151464   -1.065661    0.834809
      3          1           0       -2.367015   -2.248428   -0.025750
      4          7           0        0.594447    0.240053   -0.022965
      5          7           0       -0.048768   -0.906991   -0.049536
      6          6           0        0.889171   -1.843514   -0.012209
      7          6           0        2.126836   -1.183752    0.029385
      8          7           0        1.906146    0.135778    0.026705
      9          1           0        0.622082   -2.891177   -0.016978
     10          1           0        3.131740   -1.578115    0.066179
     11          1           0       -1.930727   -0.621535   -0.102366
     12          6           0       -0.243041    1.553976   -0.008221
     13          8           0       -1.449668    1.278463   -0.026503
     14          8           0        0.433514    2.564969    0.019954
 ---------------------------------------------------------------------

 SCF Done:  E(UM062X) =  -507.018823253     A.U. after    1 cycles

 The electronic state is 2-A.
 Alpha  occ. eigenvalues --  -19.60561 -19.46974 -19.46570 -14.73400 -14.67470
 Alpha  occ. eigenvalues --  -14.67416 -10.54669 -10.45686 -10.45486  -1.10678
 Alpha  occ. eigenvalues --   -1.09824  -1.03533  -0.95717  -0.86983  -0.78911
 Alpha  occ. eigenvalues --   -0.59355  -0.58485  -0.54397  -0.51615  -0.50103
 Alpha  occ. eigenvalues --   -0.43663  -0.43596  -0.39700  -0.39379  -0.38869
 Alpha  occ. eigenvalues --   -0.36098  -0.34951  -0.27532  -0.24778  -0.22751
 Alpha  occ. eigenvalues --   -0.21496  -0.19864  -0.19510  -0.19418   0.00688
 Alpha virt. eigenvalues --    0.11981   0.14685   0.15161   0.16405   0.17454
 Alpha virt. eigenvalues --    0.17576   0.18117   0.19422   0.21036   0.21108
 Alpha virt. eigenvalues --    0.21988   0.23444   0.24071   0.25764   0.27075

  Beta  occ. eigenvalues --  -19.60009 -19.46949 -19.46568 -14.73399 -14.67465
  Beta  occ. eigenvalues --  -14.67372 -10.54667 -10.45685 -10.45464  -1.10606
  Beta  occ. eigenvalues --   -1.08397  -1.03508  -0.95683  -0.86931  -0.78884
  Beta  occ. eigenvalues --   -0.59336  -0.58419  -0.53933  -0.50123  -0.49997
  Beta  occ. eigenvalues --   -0.43629  -0.43483  -0.39671  -0.39296  -0.38140
  Beta  occ. eigenvalues --   -0.36065  -0.34926  -0.27399  -0.24641  -0.22715
  Beta  occ. eigenvalues --   -0.21466  -0.19847  -0.19482  -0.19376
  Beta virt. eigenvalues --    0.05052   0.12642   0.12668   0.14358   0.14800
  Beta virt. eigenvalues --    0.15788   0.16576   0.16853   0.17704   0.19529
  Beta virt. eigenvalues --    0.19943   0.20636   0.21824   0.22792   0.23710

 Mulliken charges and spin densities:
               1          2
     1  O   -0.800934   0.204975
     2  H    0.401258   0.047645
     3  H    0.307943   0.265679
     4  N   -0.135176  -0.263340
     5  N   -0.197001   0.172388
     6  C    0.586638  -0.750508
     7  C   -1.620766   1.448883
     8  N    0.149791  -0.278206
     9  H    0.192021  -0.015063
    10  H    0.141477  -0.000888
    11  H    0.539432   0.004388
    12  C    0.637675   0.110699
    13  O   -0.664311   0.049221
    14  O   -0.538048   0.004128
 Sum of Mulliken charges =  -1.00000   1.00000

 Dipole moment (field-independent basis, Debye):
    X=              2.2546    Y=             -2.1185    Z=              0.4215  Tot=              3.1223
 Quadrupole moment (field-independent basis, Debye-Ang):
   XX=            -69.6933   YY=            -90.5281   ZZ=            -59.3054
   XY=            -10.6249   XZ=             -2.6505   YZ=             -0.0333

  Exact polarizability: 151.829 -36.958 161.695  -7.134  18.167  96.115
 Approx polarizability: 153.323 -25.302 157.696  -5.975  13.684  94.166

 ******    1 imaginary frequencies (negative Signs) ******

                      1                      2                      3
                      A                      A                      A
 Frequencies --   -404.1975                79.2198                98.5144
 Red. masses --      1.2417                 7.1099                 8.3649
 Frc consts  --      0.1195                 0.0263                 0.0478
 IR Inten    --     30.3895                 0.5372                 1.7441

                      4                      5                      6
                      A                      A                      A
 Frequencies --    142.4240               179.4372               205.4564
 Red. masses --      1.6184                 5.7984                 2.2899
 Frc consts  --      0.0193                 0.1100                 0.0570
 IR Inten    --     17.4295                 2.6541                33.5524

                      7                      8                      9
                      A                      A                      A
 Frequencies --    237.2243               273.5335               393.4707
 Red. masses --      2.4191                 8.0070                 8.7622
 Frc consts  --      0.0802                 0.3530                 0.7993
 IR Inten    --     22.5133                 3.8179                16.4063

                     10                     11                     12
                      A                      A                      A
 Frequencies --    444.5927               547.9908               700.3153
 Red. masses --      1.1074                11.2810                 3.4346
 Frc consts  --      0.1290                 1.9959                 0.9925
 IR Inten    --     25.9462                 1.9317                 6.7367

                     13                     14                     15
                      A                      A                      A
 Frequencies --    716.0869               759.1414               786.1570
 Red. masses --     10.5419                11.1521                12.3860
 Frc consts  --      3.1849                 3.7866                 4.5102
 IR Inten    --     18.8047               281.6315                11.4635

                     16                     17                     18
                      A                      A                      A
 Frequencies --    847.9036               912.6157               983.0218
 Red. masses --      1.1941                 1.4330                 7.5524
 Frc consts  --      0.5058                 0.7032                 4.3000
 IR Inten    --     32.4616                 6.2945                29.4635

                     19                     20                     21
                      A                      A                      A
 Frequencies --    999.2944              1020.8892              1119.8929
 Red. masses --      1.1783                 2.1311                 2.4270
 Frc consts  --      0.6933                 1.3086                 1.7933
 IR Inten    --     68.0404                 6.9171                 0.8272

                     22                     23                     24
                      A                      A                      A
 Frequencies --   1196.0971              1239.9035              1289.0019
 Red. masses --      1.3458                 1.2375                 4.7863
 Frc consts  --      1.1344                 1.1209                 4.6855
 IR Inten    --     26.3490               431.0884               354.6801

                     25                     26                     27
                      A                      A                      A
 Frequencies --   1323.3907              1339.7428              1362.3287
 Red. masses --      1.6361                 2.1966                10.8165
 Frc consts  --      1.6882                 2.3230                11.8278
 IR Inten    --    235.4347                95.0971                93.5321

                     28                     29                     30
                      A                      A                      A
 Frequencies --   1395.1556              1488.2511              1539.3686
 Red. masses --      8.7760                 3.8227                 5.0706
 Frc consts  --     10.0644                 4.9886                 7.0794
 IR Inten    --     13.8789                 6.5305                 2.8597

                     31                     32                     33
                      A                      A                      A
 Frequencies --   1584.0909              1921.4354              3094.6690
 Red. masses --      1.1020                11.9776                 1.0639
 Frc consts  --      1.6293                26.0538                 6.0031
 IR Inten    --     33.7622               804.4725              1052.0660

                     34                     35                     36
                      A                      A                      A
 Frequencies --   3276.8500              3295.9146              3331.0581
 Red. masses --      1.0933                 1.1040                 1.0630
 Frc consts  --      6.9168                 7.0658                 6.9495
 IR Inten    --      0.6428                16.4800              1075.7951

 - Thermochemistry -
 -------------------
 Temperature   298.150 Kelvin.  Pressure   1.00000 Atm.
 Atom     1 has atomic number  8 and mass  15.99491

 Molecular mass:   131.03309 amu.
 Principal axes and moments of inertia in atomic units:
                           1         2         3
     Eigenvalues --   971.376201101.285902066.76596
           X            0.99568   0.09261  -0.00715
           Y           -0.09263   0.99569  -0.00328
           Z            0.00681   0.00393   0.99997
 This molecule is an asymmetric top.
 Rotational symmetry number  1.
 Warning -- assumption of classical behavior for rotation
           may cause significant error
 Rotational temperatures (Kelvin)      0.08917     0.07865     0.04191
 Rotational constants (GHZ):           1.85792     1.63876     0.87322
    1 imaginary frequencies ignored.
 Zero-point vibrational energy     239997.4 (Joules/Mol)
                                   57.36077 (Kcal/Mol)
 Warning -- explicit consideration of  10 degrees of freedom as
           vibrations may cause significant error
 Vibrational temperatures:    113.98   141.74   204.92   258.17   295.61
          (Kelvin)            341.31   393.55   566.12   639.67   788.44
                             1007.60  1030.29  1092.24  1131.10  1219.94
                             1313.05  1414.35  1437.76  1468.83  1611.28
                             1720.92  1783.94  1854.59  1904.06  1927.59
                             1960.09  2007.32  2141.26  2214.81  2279.15
                             2764.52  4452.54  4714.66  4742.09  4792.65

 Zero-point correction=                           0.091410 (Hartree/Particle)
 Thermal correction to Energy=                    0.100027
 Thermal correction to Enthalpy=                  0.100972
 Thermal correction to Gibbs Free Energy=         0.056626
 Sum of electronic and zero-point Energies=           -506.927413
 Sum of electronic and thermal Energies=              -506.918796
 Sum of electronic and thermal Enthalpies=            -506.917852
 Sum of electronic and thermal Free Energies=         -506.962197

                     E (Thermal)             CV                S
                      KCal/Mol        Cal/Mol-Kelvin    Cal/Mol-Kelvin
 Total                   62.768             29.715             93.333
 Electronic               0.000              0.000              1.377
 Translational            0.889              2.981             40.524
 Rotational               0.889              2.981             29.182
 Vibrational             60.991             23.754             22.250
 Vibration     1          0.600              1.963              3.910
 Vibration     2          0.604              1.950              3.483
 Vibration     3          0.616              1.911              2.771
 Vibration     4          0.629              1.868              2.334
 Vibration     5          0.640              1.832              2.084
 Vibration     6          0.656              1.784              1.824
 Vibration     7          0.676              1.722              1.574
 Vibration     8          0.761              1.484              0.987
 Vibration     9          0.804              1.373              0.812
 Vibration    10          0.903              1.144              0.548

                           ! Non-Optimized Parameters !
 Normal termination of Gaussian 16 at Sun Jul  9 23:01:02 2023.
