 Gaussian 16, Revision C.01,
 Gaussian 16:  ES64L-G16RevC.01  3-Jul-2019

 ----------------------------
 # opt freq 6-31+g(d,p) m062x
 ----------------------------

 --
 PC
 --
 Symbolic Z-matrix:
 Charge = -1 Multiplicity = 2

 SCF Done:  E(UM062X) =  -507.054262561     A.U. after   18 cycles
 SCF Done:  E(UM062X) =  -507.058480660     A.U. after   19 cycles
 SCF Done:  E(UM062X) =  -507.068624370     A.U. after   16 cycles
 SCF Done:  E(UM062X) =  -507.070007365     A.U. after   19 cycles
 SCF Done:  E(UM062X) =  -507.073066887     A.U. after   17 cycles
 SCF Done:  E(UM062X) =  -507.076216470     A.U. after   16 cycles
 SCF Done:  E(UM062X) =  -507.079033550     A.U. after   18 cycles
 SCF Done:  E(UM062X) =  -507.079603208     A.U. after   16 cycles
 SCF Done:  E(UM062X) =  -507.080241383     A.U. after   17 cycles
 SCF Done:  E(UM062X) =  -507.080753235     A.U. after   15 cycles
 SCF Done:  E(UM062X) =  -507.081740104     A.U. after   13 cycles
 SCF Done:  E(UM062X) =  -507.081744662     A.U. after   13 cycles
 SCF Done:  E(UM062X) =  -507.081751488     A.U. after   12 cycles
 SCF Done:  E(UM062X) =  -507.081768360     A.U. after   13 cycles
 SCF Done:  E(UM062X) =  -507.081780543     A.U. after   13 cycles
 SCF Done:  E(UM062X) =  -507.081781664     A.U. after   11 cycles
 SCF Done:  E(UM062X) =  -507.081782608     A.U. after   12 cycles
 SCF Done:  E(UM062X) =  -507.081782886     A.U. after   11 cycles
 SCF Done:  E(UM062X) =  -507.081782937     A.U. after   11 cycles
 Optimization completed.
    -- Stationary point found.
 Normal termination of Gaussian 16 at Thu Dec  7 09:10:19 2023.

 ----------------------------------------------------------------------
 #N Geom=AllCheck Guess=TCheck SCRF=Check GenChk UM062X/6-31+G(d,p) Fre
 q
 ----------------------------------------------------------------------

 Structure from the checkpoint file:  "/home/gau/soft/scratch/Gau-171113.chk"
 --
 PC
 --
 Charge = -1 Multiplicity = 2

                         Standard orientation:
 ---------------------------------------------------------------------
 Center     Atomic      Atomic             Coordinates (Angstroms)
 Number     Number       Type             X           Y           Z
 ---------------------------------------------------------------------
      1          7           0       -0.319362   -0.429229   -0.020300
      2          7           0       -0.480421    0.838973   -0.580607
      3          6           0       -1.816741    1.051536   -0.409178
      4          6           0       -2.385947   -0.036054    0.228552
      5          7           0       -1.465704   -0.993479    0.487619
      6          1           0       -2.269358    1.975429   -0.739031
      7          1           0       -3.415928   -0.187065    0.521033
      8          1           0        0.825740    2.028558    0.345961
      9          6           0        0.881335   -1.075602   -0.091865
     10          8           0        1.817608   -0.335725   -0.766492
     11          8           0        1.146285   -2.165935    0.384082
     12          8           0        1.672039    2.337076    0.726964
     13          1           0        1.345489    0.407997   -1.185791
     14          1           0        2.213128    1.538612    0.729355
 ---------------------------------------------------------------------

 SCF Done:  E(UM062X) =  -507.081782937     A.U. after    1 cycles

 The electronic state is 2-A.
 Alpha  occ. eigenvalues --  -19.53765 -19.49629 -19.46732 -14.70728 -14.63351
 Alpha  occ. eigenvalues --  -14.62411 -10.54690 -10.42662 -10.42376  -1.09029
 Alpha  occ. eigenvalues --   -1.02108  -0.98374  -0.97789  -0.82332  -0.79012
 Alpha  occ. eigenvalues --   -0.61367  -0.54428  -0.53076  -0.47807  -0.44989
 Alpha  occ. eigenvalues --   -0.42644  -0.39217  -0.38513  -0.35141  -0.34410
 Alpha  occ. eigenvalues --   -0.33145  -0.32255  -0.25536  -0.25137  -0.24609
 Alpha  occ. eigenvalues --   -0.21698  -0.21158  -0.20463  -0.19073  -0.01013
 Alpha virt. eigenvalues --    0.13257   0.13849   0.15555   0.17293   0.18247
 Alpha virt. eigenvalues --    0.18543   0.19392   0.20515   0.21332   0.21748
 Alpha virt. eigenvalues --    0.24321   0.24681   0.25561   0.27256   0.27630

  Beta  occ. eigenvalues --  -19.53741 -19.49613 -19.46497 -14.70640 -14.62886
  Beta  occ. eigenvalues --  -14.61892 -10.54614 -10.42600 -10.42406  -1.08601
  Beta  occ. eigenvalues --   -1.01375  -0.98040  -0.97518  -0.80786  -0.78254
  Beta  occ. eigenvalues --   -0.60574  -0.53969  -0.52836  -0.46915  -0.44784
  Beta  occ. eigenvalues --   -0.41129  -0.38782  -0.38197  -0.34635  -0.33155
  Beta  occ. eigenvalues --   -0.32892  -0.31776  -0.24904  -0.24242  -0.23534
  Beta  occ. eigenvalues --   -0.20905  -0.19569  -0.16941  -0.16547
  Beta virt. eigenvalues --    0.12599   0.13879   0.14246   0.15109   0.16628
  Beta virt. eigenvalues --    0.17810   0.18108   0.19264   0.19884   0.20098
  Beta virt. eigenvalues --    0.21523   0.23018   0.25415   0.26400   0.26992

 Mulliken charges and spin densities:
               1          2
     1  N   -0.151714  -0.007374
     2  N   -0.473333   0.287194
     3  C   -0.206767   0.138865
     4  C   -0.175848  -0.031633
     5  N   -0.223016   0.385900
     6  H    0.126581  -0.006074
     7  H    0.121722   0.000098
     8  H    0.442529   0.002694
     9  C    0.662054   0.108779
    10  O   -0.569614   0.005317
    11  O   -0.550034   0.111407
    12  O   -0.786608   0.003886
    13  H    0.406512   0.000527
    14  H    0.377538   0.000413
 Sum of Mulliken charges =  -1.00000   1.00000

 Dipole moment (field-independent basis, Debye):
    X=             -1.9874    Y=              2.2884    Z=             -1.8426  Tot=              3.5470
 Quadrupole moment (field-independent basis, Debye-Ang):
   XX=            -65.9537   YY=            -80.1844   ZZ=            -59.7059
   XY=             -2.8944   XZ=             -0.7525   YZ=             -0.3998

  Exact polarizability:     106.541     -12.970      91.596      -2.667     -10.325      60.736
 Approx polarizability:     112.277     -12.058     109.712      -4.339     -17.465      73.313

                      1                      2                      3
                      A                      A                      A
 Frequencies --     42.6133                69.3054               130.6309
 Red. masses --      8.4421                 6.7105                 6.5383
 Frc consts  --      0.0090                 0.0190                 0.0657
 IR Inten    --      5.3454                 3.3295                 0.6517

                      4                      5                      6
                      A                      A                      A
 Frequencies --    157.9583               172.9635               254.3736
 Red. masses --      8.0439                 6.8681                 3.5764
 Frc consts  --      0.1182                 0.1211                 0.1363
 IR Inten    --      1.5881                 6.0972                10.8078

                      7                      8                      9
                      A                      A                      A
 Frequencies --    302.7120               422.8171               457.0041
 Red. masses --      1.2545                 1.1117                 5.6497
 Frc consts  --      0.0677                 0.1171                 0.6952
 IR Inten    --     71.1271                72.4737                 8.0126

                     10                     11                     12
                      A                      A                      A
 Frequencies --    471.5815               567.1171               587.6259
 Red. masses --      7.1108                 6.2351                 1.1598
 Frc consts  --      0.9317                 1.1815                 0.2360
 IR Inten    --      9.4262                17.4770               142.1364

                     13                     14                     15
                      A                      A                      A
 Frequencies --    607.8146               662.3675               716.7065
 Red. masses --      4.2269                11.3154                 1.0573
 Frc consts  --      0.9200                 2.9249                 0.3200
 IR Inten    --      5.3809                30.1530                45.9028

                     16                     17                     18
                      A                      A                      A
 Frequencies --    725.2423               735.6459               828.8212
 Red. masses --      1.2018                 9.8694                 1.2532
 Frc consts  --      0.3724                 3.1469                 0.5072
 IR Inten    --     72.1058                 5.0613                 5.2289

                     19                     20                     21
                      A                      A                      A
 Frequencies --    872.4159               954.9262              1104.5353
 Red. masses --      6.2019                 7.6873                 1.8678
 Frc consts  --      2.7811                 4.1301                 1.3426
 IR Inten    --     11.7222                13.4221                60.1732

                     22                     23                     24
                      A                      A                      A
 Frequencies --   1112.5203              1123.8685              1218.3145
 Red. masses --      2.1354                 2.1450                10.3986
 Frc consts  --      1.5572                 1.5963                 9.0937
 IR Inten    --     99.9466                77.4687                 2.8194

                     25                     26                     27
                      A                      A                      A
 Frequencies --   1286.8752              1332.3953              1408.1097
 Red. masses --      6.6635                 1.4903                 2.5035
 Frc consts  --      6.5017                 1.5588                 2.9246
 IR Inten    --     22.9316               146.3228                61.6054

                     28                     29                     30
                      A                      A                      A
 Frequencies --   1473.7989              1521.1959              1679.8053
 Red. masses --      6.7047                 4.7906                 1.0839
 Frc consts  --      8.5803                 6.5314                 1.8020
 IR Inten    --    263.5934                16.2489               188.1442

                     31                     32                     33
                      A                      A                      A
 Frequencies --   1838.4742              3267.2570              3292.2406
 Red. masses --      9.1826                 1.0876                 1.1026
 Frc consts  --     18.2865                 6.8403                 7.0412
 IR Inten    --    916.5374                 6.5378                25.8595

                     34                     35                     36
                      A                      A                      A
 Frequencies --   3611.2125              3684.3505              3910.4503
 Red. masses --      1.0608                 1.0647                 1.0680
 Frc consts  --      8.1505                 8.5155                 9.6218
 IR Inten    --    617.8546                74.9032                44.8361

 - Thermochemistry -
 -------------------
 Temperature   298.150 Kelvin.  Pressure   1.00000 Atm.
 Atom     1 has atomic number  7 and mass  14.00307

 Molecular mass:   131.03309 amu.
 Principal axes and moments of inertia in atomic units:
                           1         2         3
     Eigenvalues --   935.269041174.485091867.64038
           X            0.99967   0.02564   0.00078
           Y           -0.02564   0.99967  -0.00113
           Z           -0.00081   0.00111   1.00000
 This molecule is an asymmetric top.
 Rotational symmetry number  1.
 Warning -- assumption of classical behavior for rotation
           may cause significant error
 Rotational temperatures (Kelvin)      0.09261     0.07375     0.04638
 Rotational constants (GHZ):           1.92965     1.53662     0.96632
 Zero-point vibrational energy     254840.8 (Joules/Mol)
                                   60.90840 (Kcal/Mol)
 Warning -- explicit consideration of  13 degrees of freedom as
           vibrations may cause significant error
 Vibrational temperatures:     61.31    99.71   187.95   227.27   248.86
          (Kelvin)            365.99   435.54   608.34   657.53   678.50
                              815.96   845.46   874.51   953.00  1031.18
                             1043.46  1058.43  1192.49  1255.21  1373.93
                             1589.18  1600.67  1617.00  1752.88  1851.53
                             1917.02  2025.96  2120.47  2188.66  2416.87
                             2645.15  4700.85  4736.80  5195.73  5300.96
                             5626.27

 Zero-point correction=                           0.097064 (Hartree/Particle)
 Thermal correction to Energy=                    0.106384
 Thermal correction to Enthalpy=                  0.107328
 Thermal correction to Gibbs Free Energy=         0.061195
 Sum of electronic and zero-point Energies=           -506.984719
 Sum of electronic and thermal Energies=              -506.975399
 Sum of electronic and thermal Enthalpies=            -506.974455
 Sum of electronic and thermal Free Energies=         -507.020588

                     E (Thermal)             CV                S
                      KCal/Mol        Cal/Mol-Kelvin    Cal/Mol-Kelvin
 Total                   66.757             32.701             97.095
 Electronic               0.000              0.000              1.377
 Translational            0.889              2.981             40.524
 Rotational               0.889              2.981             29.108
 Vibrational             64.979             26.740             26.086
 Vibration     1          0.595              1.980              5.134
 Vibration     2          0.598              1.969              4.173
 Vibration     3          0.612              1.923              2.937
 Vibration     4          0.621              1.894              2.574
 Vibration     5          0.626              1.876              2.403
 Vibration     6          0.665              1.755              1.700
 Vibration     7          0.694              1.669              1.402
 Vibration     8          0.785              1.421              0.882
 Vibration     9          0.815              1.345              0.775
 Vibration    10          0.829              1.313              0.733
 Vibration    11          0.923              1.102              0.510
 Vibration    12          0.945              1.058              0.471
 Vibration    13          0.967              1.015              0.436

                           ! Non-Optimized Parameters !
 Normal termination of Gaussian 16 at Thu Dec  7 09:11:43 2023.
