 Gaussian 16, Revision A.03,
 Gaussian 16:  ES64L-G16RevA.03 25-Dec-2016

 ----------------------------
 # opt freq 6-31+g(d,p) m062x
 ----------------------------

 ----
 test
 ----
 Symbolic Z-matrix:
 Charge =  0 Multiplicity = 1

 SCF Done:  E(RM062X) =  -430.629559460     A.U. after   14 cycles
 SCF Done:  E(RM062X) =  -430.653149081     A.U. after   13 cycles
 SCF Done:  E(RM062X) =  -430.659385425     A.U. after   15 cycles
 SCF Done:  E(RM062X) =  -430.664473902     A.U. after   12 cycles
 SCF Done:  E(RM062X) =  -430.668798613     A.U. after   12 cycles
 SCF Done:  E(RM062X) =  -430.669723547     A.U. after   12 cycles
 SCF Done:  E(RM062X) =  -430.670607133     A.U. after   12 cycles
 SCF Done:  E(RM062X) =  -430.670906384     A.U. after   11 cycles
 SCF Done:  E(RM062X) =  -430.670919528     A.U. after   11 cycles
 SCF Done:  E(RM062X) =  -430.670941869     A.U. after   10 cycles
 SCF Done:  E(RM062X) =  -430.671022017     A.U. after   10 cycles
 SCF Done:  E(RM062X) =  -430.671023396     A.U. after   10 cycles
 SCF Done:  E(RM062X) =  -430.671024394     A.U. after   10 cycles
 SCF Done:  E(RM062X) =  -430.671024821     A.U. after    9 cycles
 SCF Done:  E(RM062X) =  -430.671025429     A.U. after    9 cycles
 SCF Done:  E(RM062X) =  -430.671026272     A.U. after    9 cycles
 SCF Done:  E(RM062X) =  -430.671027285     A.U. after    9 cycles
 SCF Done:  E(RM062X) =  -430.671028117     A.U. after    9 cycles
 SCF Done:  E(RM062X) =  -430.671028372     A.U. after    9 cycles
 Optimization completed.
    -- Stationary point found.
 Normal termination of Gaussian 16 at Fri Jun  2 02:59:27 2023.

 ----------------------------------------------------------------------
 #N Geom=AllCheck Guess=TCheck SCRF=Check GenChk RM062X/6-31+G(d,p) Fre
 q
 ----------------------------------------------------------------------

 Structure from the checkpoint file:  "/scratch/gongke2021/RC/Gau-15530.chk"
 ----
 test
 ----
 Charge =  0 Multiplicity = 1

                         Standard orientation:
 ---------------------------------------------------------------------
 Center     Atomic      Atomic             Coordinates (Angstroms)
 Number     Number       Type             X           Y           Z
 ---------------------------------------------------------------------
      1          7           0       -0.838582   -0.802797   -0.001069
      2          7           0       -0.356276    0.424842    0.000365
      3          6           0       -1.447183    1.187316    0.001156
      4          6           0       -2.571441    0.344353    0.000256
      5          7           0       -2.149394   -0.918534   -0.001079
      6          1           0       -1.375064    2.263546    0.002172
      7          1           0       -3.623922    0.580211    0.000572
      8          1           0       -0.221104   -1.603967   -0.001551
      9          6           0        2.379218   -0.052737    0.000077
     10          8           0        2.757106    1.043287   -0.001564
     11          8           0        2.051181   -1.173031    0.001859
 ---------------------------------------------------------------------

 SCF Done:  E(RM062X) =  -430.671028372     A.U. after    1 cycles

 The electronic state is 1-A.
 Alpha  occ. eigenvalues --  -19.73391 -19.73297 -14.88762 -14.81935 -14.81672
 Alpha  occ. eigenvalues --  -10.75588 -10.59174 -10.58981  -1.29560  -1.24673
 Alpha  occ. eigenvalues --   -1.24418  -1.01599  -0.94079  -0.73311  -0.72622
 Alpha  occ. eigenvalues --   -0.66228  -0.64024  -0.60946  -0.60544  -0.60229
 Alpha  occ. eigenvalues --   -0.56853  -0.53349  -0.52705  -0.44719  -0.44681
 Alpha  occ. eigenvalues --   -0.41317  -0.38576  -0.36536  -0.34244
 Alpha virt. eigenvalues --    0.00434   0.02027   0.02674   0.03549   0.04335
 Alpha virt. eigenvalues --    0.04401   0.05495   0.06296   0.07605   0.07961
 Alpha virt. eigenvalues --    0.08251   0.08377   0.08573   0.09845   0.12431

 Mulliken charges:
               1
     1  N   -0.215499
     2  N   -0.099164
     3  C   -0.189585
     4  C   -0.133372
     5  N   -0.134761
     6  H    0.179897
     7  H    0.180813
     8  H    0.379676
     9  C    0.770769
    10  O   -0.346744
    11  O   -0.392031
 Sum of Mulliken charges =  -0.00000

 Dipole moment (field-independent basis, Debye):
    X=             -0.3066    Y=              0.3817    Z=              0.0002  Tot=              0.4896
 Quadrupole moment (field-independent basis, Debye-Ang):
   XX=            -44.0716   YY=            -44.5230   ZZ=            -45.5583
   XY=             -7.0325   XZ=             -0.0054   YZ=              0.0116

  Exact polarizability:  64.123   2.741  67.030  -0.009   0.002  35.162
 Approx polarizability:  75.522   5.806  95.986  -0.014  -0.003  43.379

                      1                      2                      3
                      A                      A                      A
 Frequencies --     42.2814                65.2914                76.3433
 Red. masses --      8.2835                 5.7071                 7.2280
 Frc consts  --      0.0087                 0.0143                 0.0248
 IR Inten    --      0.0016                 0.0910                 0.9343

                      4                      5                      6
                      A                      A                      A
 Frequencies --    119.4749               167.9983               637.7217
 Red. masses --      9.4545                11.4066                 2.5892
 Frc consts  --      0.0795                 0.1897                 0.6204
 IR Inten    --      0.2609                 0.1124                17.4182

                      7                      8                      9
                      A                      A                      A
 Frequencies --    653.5977               671.9553               685.0938
 Red. masses --     12.9268                12.6491                 3.6612
 Frc consts  --      3.2536                 3.3651                 1.0125
 IR Inten    --     86.8354                32.3017                 0.2946

                     10                     11                     12
                      A                      A                      A
 Frequencies --    752.1104               857.1694               912.7645
 Red. masses --      1.7124                 1.1560                 1.3778
 Frc consts  --      0.5707                 0.5004                 0.6763
 IR Inten    --     63.5906                71.4367                 0.0024

                     13                     14                     15
                      A                      A                      A
 Frequencies --    972.0555              1001.1730              1098.3587
 Red. masses --      6.3977                 3.6358                 1.6753
 Frc consts  --      3.5617                 2.1472                 1.1908
 IR Inten    --     38.7032                15.6568                 0.4525

                     16                     17                     18
                      A                      A                      A
 Frequencies --   1168.1230              1230.6920              1303.3461
 Red. masses --      1.4672                 7.3406                 1.6190
 Frc consts  --      1.1796                 6.5506                 1.6203
 IR Inten    --     49.7915                13.5384                34.8752

                     19                     20                     21
                      A                      A                      A
 Frequencies --   1340.0228              1407.3040              1459.1437
 Red. masses --      7.7861                15.9727                 3.0323
 Frc consts  --      8.2375                18.6382                 3.8038
 IR Inten    --      0.4112                 1.4745                 6.6887

                     22                     23                     24
                      A                      A                      A
 Frequencies --   1475.4569              1582.2525              2457.5862
 Red. masses --      3.5888                 3.0012                12.8094
 Frc consts  --      4.6031                 4.4269                45.5824
 IR Inten    --      7.3152                 2.4076               688.6529

                     25                     26                     27
                      A                      A                      A
 Frequencies --   3310.0578              3325.5167              3671.4988
 Red. masses --      1.0938                 1.1055                 1.0841
 Frc consts  --      7.0610                 7.2031                 8.6100
 IR Inten    --      0.0382                 0.0258               171.2832

 - Thermochemistry -
 -------------------
 Temperature   298.150 Kelvin.  Pressure   1.00000 Atm.
 Atom     1 has atomic number  7 and mass  14.00307

 Molecular mass:   113.02253 amu.
 Principal axes and moments of inertia in atomic units:
                           1         2         3
     Eigenvalues --   318.450201616.374591934.82370
           X            0.99991  -0.01344  -0.00001
           Y            0.01344   0.99991   0.00009
           Z            0.00001  -0.00009   1.00000
 This molecule is an asymmetric top.
 Rotational symmetry number  1.
 Rotational temperatures (Kelvin)      0.27199     0.05359     0.04477
 Rotational constants (GHZ):           5.66726     1.11654     0.93277
 Zero-point vibrational energy     194060.5 (Joules/Mol)
                                   46.38158 (Kcal/Mol)
 Warning -- explicit consideration of   5 degrees of freedom as
           vibrations may cause significant error
 Vibrational temperatures:     60.83    93.94   109.84   171.90   241.71
          (Kelvin)            917.54   940.38   966.79   985.70  1082.12
                             1233.28  1313.26  1398.57  1440.46  1580.29
                             1680.67  1770.69  1875.22  1927.99  2024.80
                             2099.38  2122.85  2276.51  3535.92  4762.43
                             4784.68  5282.47

 Zero-point correction=                           0.073914 (Hartree/Particle)
 Thermal correction to Energy=                    0.081396
 Thermal correction to Enthalpy=                  0.082340
 Thermal correction to Gibbs Free Energy=         0.039637
 Sum of electronic and zero-point Energies=           -430.597115
 Sum of electronic and thermal Energies=              -430.589632
 Sum of electronic and thermal Enthalpies=            -430.588688
 Sum of electronic and thermal Free Energies=         -430.631392

                     E (Thermal)             CV                S
                      KCal/Mol        Cal/Mol-Kelvin    Cal/Mol-Kelvin
 Total                   51.077             23.169             89.877
 Electronic               0.000              0.000              0.000
 Translational            0.889              2.981             40.083
 Rotational               0.889              2.981             28.390
 Vibrational             49.299             17.207             21.405
 Vibration     1          0.595              1.980              5.149
 Vibration     2          0.597              1.971              4.291
 Vibration     3          0.599              1.965              3.983
 Vibration     4          0.609              1.933              3.109
 Vibration     5          0.625              1.882              2.458

                           ! Non-Optimized Parameters !
 Normal termination of Gaussian 16 at Fri Jun  2 03:00:32 2023.
