 Gaussian 16, Revision A.03,
 Gaussian 16:  ES64L-G16RevA.03 25-Dec-2016

 ----------------------------
 # opt freq 6-31+g(d,p) m062x
 ----------------------------

 ----
 test
 ----
 Symbolic Z-matrix:
 Charge =  0 Multiplicity = 1

 SCF Done:  E(RM062X) =  -583.419962224     A.U. after   14 cycles
 SCF Done:  E(RM062X) =  -583.439403276     A.U. after   13 cycles
 SCF Done:  E(RM062X) =  -583.454467918     A.U. after   13 cycles
 SCF Done:  E(RM062X) =  -583.464397813     A.U. after   13 cycles
 SCF Done:  E(RM062X) =  -583.472061980     A.U. after   14 cycles
 SCF Done:  E(RM062X) =  -583.473251474     A.U. after   13 cycles
 SCF Done:  E(RM062X) =  -583.475944594     A.U. after   13 cycles
 SCF Done:  E(RM062X) =  -583.476977161     A.U. after   12 cycles
 SCF Done:  E(RM062X) =  -583.477491115     A.U. after   12 cycles
 SCF Done:  E(RM062X) =  -583.477748073     A.U. after   12 cycles
 SCF Done:  E(RM062X) =  -583.484404707     A.U. after   11 cycles
 SCF Done:  E(RM062X) =  -583.484405259     A.U. after    9 cycles
 SCF Done:  E(RM062X) =  -583.484405596     A.U. after   10 cycles
 SCF Done:  E(RM062X) =  -583.484405875     A.U. after    8 cycles
 SCF Done:  E(RM062X) =  -583.484406027     A.U. after    9 cycles
 SCF Done:  E(RM062X) =  -583.484406128     A.U. after    9 cycles
 SCF Done:  E(RM062X) =  -583.484406284     A.U. after    9 cycles
 SCF Done:  E(RM062X) =  -583.484406345     A.U. after    9 cycles
 SCF Done:  E(RM062X) =  -583.484406381     A.U. after    8 cycles
 Optimization completed.
    -- Stationary point found.
 Normal termination of Gaussian 16 at Mon Jun  5 08:12:23 2023.

 ----------------------------------------------------------------------
 #N Geom=AllCheck Guess=TCheck SCRF=Check GenChk RM062X/6-31+G(d,p) Fre
 q
 ----------------------------------------------------------------------

 Structure from the checkpoint file:  "/scratch/gongke2021/PC/Gau-16522.chk"
 ----
 test
 ----
 Charge =  0 Multiplicity = 1

                         Standard orientation:
 ---------------------------------------------------------------------
 Center     Atomic      Atomic             Coordinates (Angstroms)
 Number     Number       Type             X           Y           Z
 ---------------------------------------------------------------------
      1          7           0       -0.403073   -0.467174   -0.075028
      2          7           0        0.921273   -0.336194   -0.018598
      3          6           0        1.529853   -1.548743    0.031124
      4          6           0        0.487077   -2.437894    0.003982
      5          7           0       -0.679302   -1.727548   -0.060759
      6          1           0        2.602518   -1.641537    0.080497
      7          1           0        0.493917   -3.515608    0.026713
      8          1           0       -2.633042   -1.100153    0.095321
      9          6           0        1.563277    0.968769    0.006198
     10          8           0        2.762104    1.000237    0.046344
     11          8           0        0.751389    1.978853   -0.014333
     12          1           0       -2.270242    1.151019   -0.012463
     13          8           0       -3.250770   -0.351022    0.146832
     14          1           0       -3.974076   -0.543351   -0.457394
     15          1           0       -0.265533    1.835102   -0.039871
     16          8           0       -1.775821    1.995684   -0.094955
     17          1           0       -2.202290    2.648132    0.468962
 ---------------------------------------------------------------------

 SCF Done:  E(RM062X) =  -583.484406381     A.U. after    1 cycles

 The electronic state is 1-A.
 Alpha  occ. eigenvalues --  -19.68792 -19.66709 -19.66494 -19.65143 -14.88591
 Alpha  occ. eigenvalues --  -14.85826 -14.82611 -10.74067 -10.62368 -10.60426
 Alpha  occ. eigenvalues --   -1.27606  -1.23485  -1.16791  -1.15358  -1.14323
 Alpha  occ. eigenvalues --   -1.04524  -0.93780  -0.79496  -0.74676  -0.71862
 Alpha  occ. eigenvalues --   -0.68117  -0.63437  -0.62435  -0.60441  -0.57361
 Alpha  occ. eigenvalues --   -0.55827  -0.54207  -0.53405  -0.52206  -0.48505
 Alpha  occ. eigenvalues --   -0.45949  -0.44846  -0.42230  -0.41157  -0.40595
 Alpha  occ. eigenvalues --   -0.39762  -0.38487  -0.37145  -0.34978
 Alpha virt. eigenvalues --   -0.02023   0.01219   0.03085   0.03424   0.04112
 Alpha virt. eigenvalues --    0.05000   0.05661   0.05859   0.06961   0.08898
 Alpha virt. eigenvalues --    0.09421   0.09961   0.10308   0.11557   0.11940

 Mulliken charges:
               1
     1  N   -0.022156
     2  N   -0.345270
     3  C   -0.008664
     4  C   -0.277405
     5  N   -0.197460
     6  H    0.232986
     7  H    0.188764
     8  H    0.432380
     9  C    0.783772
    10  O   -0.411942
    11  O   -0.571165
    12  H    0.488519
    13  O   -0.797844
    14  H    0.386634
    15  H    0.544708
    16  O   -0.821293
    17  H    0.395433
 Sum of Mulliken charges =  -0.00000

 Dipole moment (field-independent basis, Debye):
    X=             -2.8842    Y=             -2.9256    Z=              0.0373  Tot=              4.1084
 Quadrupole moment (field-independent basis, Debye-Ang):
   XX=            -56.2560   YY=            -53.0080   ZZ=            -59.6632
   XY=            -10.4995   XZ=              2.1898   YZ=              3.4105

  Exact polarizability:  93.759   1.138  86.797   1.350   0.256  46.445
 Approx polarizability: 112.505   0.943 100.416   2.188   0.288  58.297

                      1                      2                      3
                      A                      A                      A
 Frequencies --     32.3868                49.4835               113.4026
 Red. masses --      5.3728                 5.4793                 7.2750
 Frc consts  --      0.0033                 0.0079                 0.0551
 IR Inten    --     10.6595                 1.8128                 1.2850

                      4                      5                      6
                      A                      A                      A
 Frequencies --    129.7321               161.2685               168.8805
 Red. masses --      7.0921                 3.6059                 6.6273
 Frc consts  --      0.0703                 0.0553                 0.1114
 IR Inten    --      9.1073                34.4161                 3.4460

                      7                      8                      9
                      A                      A                      A
 Frequencies --    196.5419               218.5632               241.1337
 Red. masses --      2.9247                 3.0847                 2.1544
 Frc consts  --      0.0666                 0.0868                 0.0738
 IR Inten    --     24.9854                55.4027                83.2658

                     10                     11                     12
                      A                      A                      A
 Frequencies --    268.3156               302.4768               371.2402
 Red. masses --      1.3117                 3.6607                 1.0918
 Frc consts  --      0.0556                 0.1973                 0.0887
 IR Inten    --     63.6186                39.1910                73.2486

                     13                     14                     15
                      A                      A                      A
 Frequencies --    440.0613               513.8203               566.0516
 Red. masses --      3.5439                 1.5168                 4.3685
 Frc consts  --      0.4044                 0.2359                 0.8247
 IR Inten    --      9.3974                92.5527                17.6060

                     16                     17                     18
                      A                      A                      A
 Frequencies --    619.3385               636.0916               718.3630
 Red. masses --      1.1546                 3.6506                 8.2675
 Frc consts  --      0.2609                 0.8703                 2.5137
 IR Inten    --    138.7540                10.2006                 0.7098

                     19                     20                     21
                      A                      A                      A
 Frequencies --    765.5028               775.9630               820.4209
 Red. masses --      9.2319                 8.4480                 1.0741
 Frc consts  --      3.1874                 2.9970                 0.4260
 IR Inten    --     50.6070                92.1313               119.6437

                     22                     23                     24
                      A                      A                      A
 Frequencies --    824.9544               911.5069               979.8810
 Red. masses --      1.2260                 1.3599                 5.1376
 Frc consts  --      0.4916                 0.6657                 2.9064
 IR Inten    --     58.3882                 0.1156                 8.9997

                     25                     26                     27
                      A                      A                      A
 Frequencies --   1044.9229              1063.4812              1085.6585
 Red. masses --      1.0587                 2.0931                 2.1518
 Frc consts  --      0.6811                 1.3948                 1.4943
 IR Inten    --    135.8627                 7.5518                86.4060

                     28                     29                     30
                      A                      A                      A
 Frequencies --   1154.1528              1281.8658              1313.5003
 Red. masses --      1.9191                 5.8416                 3.9036
 Frc consts  --      1.5062                 5.6554                 3.9681
 IR Inten    --      6.9702                19.5720               152.2362

                     31                     32                     33
                      A                      A                      A
 Frequencies --   1353.8000              1367.5947              1423.8283
 Red. masses --      1.5937                 3.9738                 5.1428
 Frc consts  --      1.7209                 4.3789                 6.1428
 IR Inten    --    314.5567               271.4251               326.0480

                     34                     35                     36
                      A                      A                      A
 Frequencies --   1492.2544              1567.0961              1627.7617
 Red. masses --      6.3204                 4.9948                 1.0840
 Frc consts  --      8.2924                 7.2270                 1.6923
 IR Inten    --    122.2442                 2.9584                91.1984

                     37                     38                     39
                      A                      A                      A
 Frequencies --   1658.9250              1931.1786              2716.7813
 Red. masses --      1.0768                10.9494                 1.0933
 Frc consts  --      1.7460                24.0594                 4.7545
 IR Inten    --    144.3462               500.1007              2023.1169

                     40                     41                     42
                      A                      A                      A
 Frequencies --   3321.1667              3343.2760              3553.0815
 Red. masses --      1.0944                 1.1080                 1.0618
 Frc consts  --      7.1124                 7.2968                 7.8976
 IR Inten    --      6.7714                11.1982               618.5294

                     43                     44                     45
                      A                      A                      A
 Frequencies --   3752.1755              3954.6969              3962.7821
 Red. masses --      1.0548                 1.0691                 1.0738
 Frc consts  --      8.7499                 9.8517                 9.9352
 IR Inten    --    345.5209               120.7581               168.1104

 - Thermochemistry -
 -------------------
 Temperature   298.150 Kelvin.  Pressure   1.00000 Atm.
 Atom     1 has atomic number  7 and mass  14.00307

 Molecular mass:   149.04366 amu.
 Principal axes and moments of inertia in atomic units:
                           1         2         3
     Eigenvalues --  1182.147851688.681912862.82903
           X            0.99763  -0.06884   0.00159
           Y            0.06884   0.99762   0.00317
           Z           -0.00181  -0.00306   0.99999
 This molecule is an asymmetric top.
 Rotational symmetry number  1.
 Warning -- assumption of classical behavior for rotation
           may cause significant error
 Rotational temperatures (Kelvin)      0.07327     0.05129     0.03025
 Rotational constants (GHZ):           1.52666     1.06873     0.63040
 Zero-point vibrational energy     327749.0 (Joules/Mol)
                                   78.33390 (Kcal/Mol)
 Warning -- explicit consideration of  16 degrees of freedom as
           vibrations may cause significant error
 Vibrational temperatures:     46.60    71.20   163.16   186.66   232.03
          (Kelvin)            242.98   282.78   314.46   346.94   386.05
                              435.20   534.13   633.15   739.27   814.42
                              891.09   915.19  1033.56  1101.39  1116.44
                             1180.40  1186.93  1311.46  1409.83  1503.41
                             1530.11  1562.02  1660.57  1844.32  1889.83
                             1947.82  1967.66  2048.57  2147.02  2254.70
                             2341.99  2386.82  2778.54  3908.84  4778.42
                             4810.23  5112.09  5398.54  5689.93  5701.56

 Zero-point correction=                           0.124833 (Hartree/Particle)
 Thermal correction to Energy=                    0.136452
 Thermal correction to Enthalpy=                  0.137397
 Thermal correction to Gibbs Free Energy=         0.086435
 Sum of electronic and zero-point Energies=           -583.359573
 Sum of electronic and thermal Energies=              -583.347954
 Sum of electronic and thermal Enthalpies=            -583.347010
 Sum of electronic and thermal Free Energies=         -583.397972

                     E (Thermal)             CV                S
                      KCal/Mol        Cal/Mol-Kelvin    Cal/Mol-Kelvin
 Total                   85.625             39.936            107.259
 Electronic               0.000              0.000              0.000
 Translational            0.889              2.981             40.908
 Rotational               0.889              2.981             30.126
 Vibrational             83.848             33.975             36.226
 Vibration     1          0.594              1.983              5.678
 Vibration     2          0.595              1.978              4.838
 Vibration     3          0.607              1.938              3.210
 Vibration     4          0.612              1.924              2.950
 Vibration     5          0.622              1.890              2.535
 Vibration     6          0.625              1.881              2.448
 Vibration     7          0.636              1.845              2.165
 Vibration     8          0.646              1.813              1.971
 Vibration     9          0.658              1.777              1.794
 Vibration    10          0.673              1.731              1.607
 Vibration    11          0.694              1.669              1.403
 Vibration    12          0.743              1.531              1.075
 Vibration    13          0.800              1.383              0.826
 Vibration    14          0.869              1.219              0.624
 Vibration    15          0.922              1.105              0.512
 Vibration    16          0.979              0.991              0.418

 Optimization completed.
    -- Stationary point found.
 Normal termination of Gaussian 16 at Mon Jun  5 08:13:40 2023.
