 Gaussian 16, Revision A.03,
 Gaussian 16:  ES64L-G16RevA.03 25-Dec-2016

 ----------------------------------------------------------------------
 # opt=(calcfc,ts,noeigentest) freq 6-31+g(d,p) integral=grid=ultrafine
  m062x
 ----------------------------------------------------------------------

 ----
 test
 ----
 Symbolic Z-matrix:
 Charge = -1 Multiplicity = 2

 SCF Done:  E(UM062X) =  -583.352225647     A.U. after   19 cycles
 SCF Done:  E(UM062X) =  -583.382652530     A.U. after   16 cycles
 SCF Done:  E(UM062X) =  -583.410168761     A.U. after   16 cycles
 SCF Done:  E(UM062X) =  -583.432407641     A.U. after   16 cycles
 SCF Done:  E(UM062X) =  -583.448417106     A.U. after   16 cycles
 SCF Done:  E(UM062X) =  -583.460131890     A.U. after   16 cycles
 SCF Done:  E(UM062X) =  -583.468092746     A.U. after   16 cycles
 SCF Done:  E(UM062X) =  -583.472404399     A.U. after   15 cycles
 SCF Done:  E(UM062X) =  -583.474583850     A.U. after   16 cycles
 SCF Done:  E(UM062X) =  -583.477462961     A.U. after   16 cycles
 SCF Done:  E(UM062X) =  -583.484746333     A.U. after   11 cycles
 SCF Done:  E(UM062X) =  -583.484746571     A.U. after   10 cycles
 SCF Done:  E(UM062X) =  -583.484746593     A.U. after   10 cycles
 SCF Done:  E(UM062X) =  -583.484746511     A.U. after    9 cycles
 SCF Done:  E(UM062X) =  -583.484746485     A.U. after   11 cycles
 SCF Done:  E(UM062X) =  -583.484745400     A.U. after   13 cycles
 SCF Done:  E(UM062X) =  -583.484746376     A.U. after   13 cycles
 SCF Done:  E(UM062X) =  -583.484746405     A.U. after   12 cycles
 SCF Done:  E(UM062X) =  -583.484746420     A.U. after   10 cycles
 Optimization completed.
    -- Stationary point found.
 Normal termination of Gaussian 16 at Sun Jun  4 22:23:47 2023.

 ----------------------------------------------------------------------
 #N Geom=AllCheck Guess=TCheck SCRF=Check GenChk UM062X/6-31+G(d,p) Fre
 q
 ----------------------------------------------------------------------

 Structure from the checkpoint file:  "/scratch/gongke2021/TS/Gau-429.chk"
 ----
 test
 ----
 Charge = -1 Multiplicity = 2

                         Standard orientation:
 ---------------------------------------------------------------------
 Center     Atomic      Atomic             Coordinates (Angstroms)
 Number     Number       Type             X           Y           Z
 ---------------------------------------------------------------------
      1          7           0        0.109539   -0.942824    0.252292
      2          7           0        0.791630    0.236774   -0.109104
      3          6           0        2.153795   -0.046583   -0.099765
      4          6           0        2.236580   -1.385026    0.204943
      5          7           0        1.028680   -1.942963    0.382720
      6          1           0        2.875497    0.729910   -0.281283
      7          1           0        3.132028   -1.984591    0.299438
      8          1           0       -0.793609   -1.205737   -0.402550
      9          6           0        0.269409    1.530951   -0.079513
     10          8           0        1.024345    2.469212   -0.309999
     11          8           0       -1.009863    1.678183    0.161094
     12          1           0       -2.545710   -0.678134   -0.105274
     13          8           0       -2.012636   -1.443638   -1.029276
     14          1           0       -2.059457   -1.063065   -1.911439
     15          1           0       -1.656238    0.890792    0.454690
     16          8           0       -2.739170    0.013992    0.749036
     17          1           0       -2.521560   -0.484137    1.544232
 ---------------------------------------------------------------------

 SCF Done:  E(UM062X) =  -583.484746420     A.U. after    1 cycles

 The electronic state is 2-A.
 Alpha  occ. eigenvalues --  -19.51353 -19.48590 -19.47434 -19.45451 -14.70211
 Alpha  occ. eigenvalues --  -14.67873 -14.64145 -10.56361 -10.44751 -10.44583
 Alpha  occ. eigenvalues --   -1.08579  -1.03581  -0.98551  -0.96355  -0.91056
 Alpha  occ. eigenvalues --   -0.86955  -0.77149  -0.64432  -0.56352  -0.54402
 Alpha  occ. eigenvalues --   -0.53296  -0.45590  -0.44518  -0.41075  -0.40477
 Alpha  occ. eigenvalues --   -0.38820  -0.37176  -0.36198  -0.33996  -0.30881
 Alpha  occ. eigenvalues --   -0.30082  -0.25818  -0.24718  -0.23939  -0.22852
 Alpha  occ. eigenvalues --   -0.22211  -0.20506  -0.20264  -0.19812  -0.04128
 Alpha virt. eigenvalues --    0.12678   0.15079   0.15611   0.16461   0.17652
 Alpha virt. eigenvalues --    0.17752   0.18466   0.20242   0.21471   0.23018
 Alpha virt. eigenvalues --    0.23196   0.24297   0.25577   0.25680   0.27251

  Beta  occ. eigenvalues --  -19.51317 -19.48583 -19.47314 -19.45418 -14.69980
  Beta  occ. eigenvalues --  -14.67420 -14.63674 -10.56332 -10.44724 -10.44492
  Beta  occ. eigenvalues --   -1.08114  -1.02655  -0.98359  -0.96239  -0.90952
  Beta  occ. eigenvalues --   -0.85714  -0.76171  -0.63231  -0.55884  -0.54060
  Beta  occ. eigenvalues --   -0.52658  -0.45392  -0.43083  -0.40336  -0.39919
  Beta  occ. eigenvalues --   -0.38624  -0.36645  -0.35493  -0.32901  -0.30649
  Beta  occ. eigenvalues --   -0.29936  -0.24964  -0.23334  -0.23108  -0.21153
  Beta  occ. eigenvalues --   -0.20460  -0.19885  -0.19690  -0.17292
  Beta virt. eigenvalues --    0.11794   0.12349   0.14335   0.15250   0.15962
  Beta virt. eigenvalues --    0.17587   0.18089   0.18260   0.19600   0.20594
  Beta virt. eigenvalues --    0.22241   0.23916   0.24109   0.25073   0.25831

 Mulliken charges and spin densities:
               1          2
     1  N   -0.304406   0.230359
     2  N   -0.216176   0.058779
     3  C   -0.173612   0.381010
     4  C   -0.198350  -0.175625
     5  N   -0.290610   0.377732
     6  H    0.187378  -0.015554
     7  H    0.132706   0.005095
     8  H    0.482304   0.010456
     9  C    0.761977   0.035763
    10  O   -0.561125   0.062748
    11  O   -0.625168   0.014865
    12  H    0.545067  -0.000057
    13  O   -1.057776   0.013302
    14  H    0.363391  -0.000231
    15  H    0.522588  -0.000076
    16  O   -0.956320   0.001787
    17  H    0.388133  -0.000354
 Sum of Mulliken charges =  -1.00000   1.00000

 Dipole moment (field-independent basis, Debye):
    X=              2.7089    Y=             -1.0104    Z=              0.2579  Tot=              2.9027
 Quadrupole moment (field-independent basis, Debye-Ang):
   XX=            -78.0892   YY=            -92.5044   ZZ=            -60.6394
   XY=             -4.2769   XZ=             -0.3178   YZ=             -0.7827

  Exact polarizability: 108.781  -0.243 107.219  -1.525  -4.296  65.103
 Approx polarizability: 115.986   4.614 124.521  -3.677  -8.423  78.229

 ******    1 imaginary frequencies (negative Signs) ******

                      1                      2                      3
                      A                      A                      A
 Frequencies --   -503.9120                53.3105                74.1795
 Red. masses --      1.8059                 5.8438                 6.1321
 Frc consts  --      0.2702                 0.0098                 0.0199
 IR Inten    --    363.9164                 3.7624                 3.7866

                      4                      5                      6
                      A                      A                      A
 Frequencies --    112.7388               149.0014               153.4495
 Red. masses --      6.3130                 6.4800                 6.1247
 Frc consts  --      0.0473                 0.0848                 0.0850
 IR Inten    --      1.7014                 5.0591                 0.6253

                      7                      8                      9
                      A                      A                      A
 Frequencies --    233.1201               336.9211               393.5777
 Red. masses --      5.6303                 6.4176                 2.2025
 Frc consts  --      0.1803                 0.4292                 0.2010
 IR Inten    --     13.0128               143.2668                34.4083

                     10                     11                     12
                      A                      A                      A
 Frequencies --    422.7449               456.1400               478.4433
 Red. masses --      1.7294                 4.5108                 2.1904
 Frc consts  --      0.1821                 0.5530                 0.2954
 IR Inten    --     95.3958               184.8728                32.8116

                     13                     14                     15
                      A                      A                      A
 Frequencies --    489.6073               540.5965               572.6009
 Red. masses --      1.3352                 2.0356                 6.1940
 Frc consts  --      0.1886                 0.3505                 1.1965
 IR Inten    --     30.1481                58.6897                24.6457

                     16                     17                     18
                      A                      A                      A
 Frequencies --    610.2617               626.3833               707.7402
 Red. masses --      4.0650                 1.2758                 5.5841
 Frc consts  --      0.8919                 0.2949                 1.6480
 IR Inten    --     37.3259                97.8575                38.0375

                     19                     20                     21
                      A                      A                      A
 Frequencies --    735.2976               749.6466               871.4460
 Red. masses --      1.8808                 2.2590                 3.3258
 Frc consts  --      0.5991                 0.7480                 1.4881
 IR Inten    --      3.2508                28.2006               327.7004

                     22                     23                     24
                      A                      A                      A
 Frequencies --    887.7100               934.7648               993.9297
 Red. masses --      1.3267                 5.0278                 2.0563
 Frc consts  --      0.6160                 2.5884                 1.1969
 IR Inten    --     47.8109                20.1147               200.3092

                     25                     26                     27
                      A                      A                      A
 Frequencies --   1073.0326              1087.4787              1197.8596
 Red. masses --      1.3713                 2.4240                 3.0924
 Frc consts  --      0.9303                 1.6890                 2.6143
 IR Inten    --    112.1814                58.8779                10.3649

                     28                     29                     30
                      A                      A                      A
 Frequencies --   1237.1012              1252.4079              1284.5466
 Red. masses --      2.9739                 2.2262                 1.7526
 Frc consts  --      2.6815                 2.0574                 1.7038
 IR Inten    --     11.7124                23.4061                86.4138

                     31                     32                     33
                      A                      A                      A
 Frequencies --   1334.6064              1406.0494              1414.9465
 Red. masses --      1.2361                 2.4773                 1.8600
 Frc consts  --      1.2972                 2.8856                 2.1941
 IR Inten    --    730.4301               275.0880               188.0326

                     34                     35                     36
                      A                      A                      A
 Frequencies --   1475.4357              1496.3014              1533.4548
 Red. masses --      1.8136                 2.2310                 2.0017
 Frc consts  --      2.3261                 2.9430                 2.7733
 IR Inten    --   1202.3081               276.5728               379.8948

                     37                     38                     39
                      A                      A                      A
 Frequencies --   1628.5820              1762.0694              1775.2745
 Red. masses --      1.1030                 1.0560                 6.8392
 Frc consts  --      1.7236                 1.9318                12.6995
 IR Inten    --     85.1863               136.0499              1150.9056

                     40                     41                     42
                      A                      A                      A
 Frequencies --   1848.6020              2339.1139              3269.7202
 Red. masses --      1.2239                 1.1006                 1.0950
 Frc consts  --      2.4642                 3.5481                 6.8976
 IR Inten    --   3475.3619              2257.1171                19.2982

                     43                     44                     45
                      A                      A                      A
 Frequencies --   3354.5776              3924.9437              3939.2856
 Red. masses --      1.0980                 1.0650                 1.0659
 Frc consts  --      7.2798                 9.6662                 9.7457
 IR Inten    --      8.1907                30.7435                15.7335

 - Thermochemistry -
 -------------------
 Temperature   298.150 Kelvin.  Pressure   1.00000 Atm.
 Atom     1 has atomic number  7 and mass  14.00307

 Molecular mass:   149.04366 amu.
 Principal axes and moments of inertia in atomic units:
                           1         2         3
     Eigenvalues --  1214.168111554.421862494.98127
           X            0.99998   0.00642   0.00004
           Y           -0.00642   0.99996   0.00552
           Z           -0.00001  -0.00552   0.99998
 This molecule is an asymmetric top.
 Rotational symmetry number  1.
 Warning -- assumption of classical behavior for rotation
           may cause significant error
 Rotational temperatures (Kelvin)      0.07134     0.05572     0.03472
 Rotational constants (GHZ):           1.48640     1.16104     0.72335
    1 imaginary frequencies ignored.
 Zero-point vibrational energy     306357.7 (Joules/Mol)
                                   73.22124 (Kcal/Mol)
 Warning -- explicit consideration of  15 degrees of freedom as
           vibrations may cause significant error
 Vibrational temperatures:     76.70   106.73   162.21   214.38   220.78
          (Kelvin)            335.41   484.75   566.27   608.24   656.28
                              688.37   704.44   777.80   823.84   878.03
                              901.23  1018.28  1057.93  1078.57  1253.82
                             1277.22  1344.92  1430.04  1543.85  1564.64
                             1723.45  1779.91  1801.94  1848.18  1920.20
                             2022.99  2035.79  2122.82  2152.84  2206.30
                             2343.17  2535.22  2554.22  2659.73  3365.46
                             4704.40  4826.49  5647.12  5667.75

 Zero-point correction=                           0.116685 (Hartree/Particle)
 Thermal correction to Energy=                    0.126679
 Thermal correction to Enthalpy=                  0.127623
 Thermal correction to Gibbs Free Energy=         0.079998
 Sum of electronic and zero-point Energies=           -583.368061
 Sum of electronic and thermal Energies=              -583.358068
 Sum of electronic and thermal Enthalpies=            -583.357123
 Sum of electronic and thermal Free Energies=         -583.404748

                     E (Thermal)             CV                S
                      KCal/Mol        Cal/Mol-Kelvin    Cal/Mol-Kelvin
 Total                   79.492             36.309            100.234
 Electronic               0.000              0.000              1.377
 Translational            0.889              2.981             40.908
 Rotational               0.889              2.981             29.933
 Vibrational             77.715             30.347             28.016
 Vibration     1          0.596              1.976              4.691
 Vibration     2          0.599              1.966              4.039
 Vibration     3          0.607              1.939              3.221
 Vibration     4          0.618              1.904              2.685
 Vibration     5          0.619              1.899              2.629
 Vibration     6          0.654              1.790              1.855
 Vibration     7          0.718              1.602              1.227
 Vibration     8          0.761              1.484              0.987
 Vibration     9          0.785              1.421              0.883
 Vibration    10          0.814              1.347              0.777
 Vibration    11          0.835              1.298              0.714
 Vibration    12          0.845              1.273              0.685
 Vibration    13          0.896              1.160              0.564
 Vibration    14          0.929              1.091              0.499
 Vibration    15          0.969              1.010              0.432

 Optimization completed.
    -- Stationary point found.
 Normal termination of Gaussian 16 at Sun Jun  4 22:28:53 2023.
