 Gaussian 16, Revision A.03,
 Gaussian 16:  ES64L-G16RevA.03 25-Dec-2016

 ----------------------------
 # opt freq 6-31+g(d,p) m062x
 ----------------------------

 ----
 test
 ----
 Symbolic Z-matrix:
 Charge = -1 Multiplicity = 2

 SCF Done:  E(UM062X) =  -430.569582465     A.U. after   19 cycles
 SCF Done:  E(UM062X) =  -430.642059132     A.U. after   18 cycles
 SCF Done:  E(UM062X) =  -430.634733718     A.U. after   18 cycles
 SCF Done:  E(UM062X) =  -430.663687828     A.U. after   16 cycles
 SCF Done:  E(UM062X) =  -430.664913827     A.U. after   16 cycles
 SCF Done:  E(UM062X) =  -430.663996563     A.U. after   16 cycles
 SCF Done:  E(UM062X) =  -430.665514923     A.U. after   15 cycles
 SCF Done:  E(UM062X) =  -430.665675195     A.U. after   15 cycles
 SCF Done:  E(UM062X) =  -430.665494436     A.U. after   19 cycles
 SCF Done:  E(UM062X) =  -430.667082179     A.U. after   16 cycles
 SCF Done:  E(UM062X) =  -430.671814408     A.U. after   15 cycles
 SCF Done:  E(UM062X) =  -430.671910402     A.U. after   14 cycles
 SCF Done:  E(UM062X) =  -430.671951518     A.U. after   14 cycles
 SCF Done:  E(UM062X) =  -430.671978510     A.U. after   14 cycles
 SCF Done:  E(UM062X) =  -430.672036254     A.U. after   15 cycles
 SCF Done:  E(UM062X) =  -430.672075693     A.U. after   15 cycles
 SCF Done:  E(UM062X) =  -430.672084131     A.U. after   14 cycles
 SCF Done:  E(UM062X) =  -430.672085638     A.U. after   12 cycles
 SCF Done:  E(UM062X) =  -430.672085830     A.U. after   11 cycles
 Optimization completed.
    -- Stationary point found.
 Normal termination of Gaussian 16 at Sun Jun  4 02:35:24 2023.

 ----------------------------------------------------------------------
 #N Geom=AllCheck Guess=TCheck SCRF=Check GenChk UM062X/6-31+G(d,p) Fre
 q
 ----------------------------------------------------------------------

 Structure from the checkpoint file:  "/scratch/gongke2021/RC/Gau-7300.chk"
 ----
 test
 ----
 Charge = -1 Multiplicity = 2

                         Standard orientation:
 ---------------------------------------------------------------------
 Center     Atomic      Atomic             Coordinates (Angstroms)
 Number     Number       Type             X           Y           Z
 ---------------------------------------------------------------------
      1          7           0       -0.758500   -1.045433    0.298439
      2          7           0        0.035823    0.105438    0.344135
      3          6           0       -0.810319    1.160941    0.085546
      4          6           0       -2.042061    0.613365   -0.199190
      5          7           0       -2.029507   -0.735535   -0.153535
      6          1           0       -0.435132    2.170262    0.082572
      7          1           0       -2.952494    1.136589   -0.460271
      8          1           0       -0.262206   -1.791934   -0.189153
      9          6           0        1.478576    0.008533   -0.016462
     10          8           0        2.048046    1.105012   -0.062580
     11          8           0        1.846696   -1.165417   -0.196892
 ---------------------------------------------------------------------

 SCF Done:  E(UM062X) =  -430.672085830     A.U. after    1 cycles

 The electronic state is 2-A.
 Alpha  occ. eigenvalues --  -19.43552 -19.43206 -14.68679 -14.66896 -14.63187
 Alpha  occ. eigenvalues --  -10.51326 -10.43594 -10.43484  -1.04973  -0.99757
 Alpha  occ. eigenvalues --   -0.91699  -0.84114  -0.77022  -0.59956  -0.55222
 Alpha  occ. eigenvalues --   -0.52349  -0.41886  -0.41703  -0.37181  -0.36262
 Alpha  occ. eigenvalues --   -0.35303  -0.32582  -0.31923  -0.24151  -0.21744
 Alpha  occ. eigenvalues --   -0.21287  -0.18302  -0.16498  -0.16139  -0.03483
 Alpha virt. eigenvalues --    0.13274   0.15975   0.16565   0.17870   0.18594
 Alpha virt. eigenvalues --    0.18868   0.19579   0.21236   0.22191   0.24283
 Alpha virt. eigenvalues --    0.24629   0.26307   0.27051   0.28158   0.28950

  Beta  occ. eigenvalues --  -19.43525 -19.43163 -14.68235 -14.66448 -14.62621
  Beta  occ. eigenvalues --  -10.51310 -10.43677 -10.43326  -1.03954  -0.99314
  Beta  occ. eigenvalues --   -0.91578  -0.82529  -0.76072  -0.58484  -0.54741
  Beta  occ. eigenvalues --   -0.51540  -0.41166  -0.39765  -0.36691  -0.35795
  Beta  occ. eigenvalues --   -0.34628  -0.32351  -0.30546  -0.22616  -0.18283
  Beta  occ. eigenvalues --   -0.17839  -0.17446  -0.16083  -0.15697
  Beta virt. eigenvalues --    0.13003   0.13491   0.15340   0.16322   0.17355
  Beta virt. eigenvalues --    0.18735   0.18860   0.19349   0.20374   0.21621
  Beta virt. eigenvalues --    0.23526   0.24543   0.25610   0.26849   0.27536

 Mulliken charges and spin densities:
               1          2
     1  N   -0.251268   0.194462
     2  N   -0.155886   0.184026
     3  C   -0.182337   0.301365
     4  C   -0.199403  -0.134876
     5  N   -0.221316   0.399114
     6  H    0.177072  -0.012026
     7  H    0.126581   0.003881
     8  H    0.345634   0.020265
     9  C    0.667237   0.003900
    10  O   -0.629954   0.023740
    11  O   -0.676361   0.016150
 Sum of Mulliken charges =  -1.00000   1.00000

 Dipole moment (field-independent basis, Debye):
    X=             -4.2874    Y=              1.2936    Z=             -0.1341  Tot=              4.4803
 Quadrupole moment (field-independent basis, Debye-Ang):
   XX=            -74.3584   YY=            -54.1374   ZZ=            -50.6672
   XY=             -5.4154   XZ=              2.0801   YZ=              0.0970

  Exact polarizability:  90.416   1.041  79.155   2.596   0.445  47.461
 Approx polarizability:  96.771   4.641 101.778   4.598   0.530  57.782

                      1                      2                      3
                      A                      A                      A
 Frequencies --    102.7326               126.1109               227.1402
 Red. masses --      6.8030                 8.9304                 6.3297
 Frc consts  --      0.0423                 0.0837                 0.1924
 IR Inten    --      5.3557                 2.3269                 2.2748

                      4                      5                      6
                      A                      A                      A
 Frequencies --    386.1588               443.7314               554.3756
 Red. masses --      5.7929                 6.5788                 8.3115
 Frc consts  --      0.5090                 0.7632                 1.5050
 IR Inten    --      3.0136                10.8848                 1.1880

                      7                      8                      9
                      A                      A                      A
 Frequencies --    594.3292               687.2984               750.9645
 Red. masses --      4.2787                 1.2385                 3.1005
 Frc consts  --      0.8905                 0.3447                 1.0302
 IR Inten    --      4.5428                58.3644                95.7845

                     10                     11                     12
                      A                      A                      A
 Frequencies --    782.7026               796.2128               872.7391
 Red. masses --      4.8716                 4.6405                 1.2870
 Frc consts  --      1.7584                 1.7333                 0.5776
 IR Inten    --    160.1076                84.5304                 5.3459

                     13                     14                     15
                      A                      A                      A
 Frequencies --    924.9337               972.2755              1045.7711
 Red. masses --      4.1479                 4.3830                 2.0978
 Frc consts  --      2.0907                 2.4412                 1.3517
 IR Inten    --     25.3221                21.2314               254.7029

                     16                     17                     18
                      A                      A                      A
 Frequencies --   1081.9414              1172.2698              1218.9824
 Red. masses --      1.5998                 3.4716                 3.0293
 Frc consts  --      1.1034                 2.8108                 2.6521
 IR Inten    --     16.1162                95.3830                33.9779

                     19                     20                     21
                      A                      A                      A
 Frequencies --   1318.3744              1332.0586              1342.4560
 Red. masses --      4.3810                 4.9760                 2.1108
 Frc consts  --      4.4864                 5.2021                 2.2413
 IR Inten    --    310.7345               292.1723                76.7838

                     22                     23                     24
                      A                      A                      A
 Frequencies --   1454.2464              1525.3763              1831.2789
 Red. masses --      2.1743                 4.5896                12.4087
 Frc consts  --      2.7092                 6.2918                24.5181
 IR Inten    --      2.3695                 5.9417               630.1869

                     25                     26                     27
                      A                      A                      A
 Frequencies --   3263.5072              3338.7803              3506.4408
 Red. masses --      1.0939                 1.0980                 1.0782
 Frc consts  --      6.8641                 7.2115                 7.8102
 IR Inten    --     18.9224                 6.6251                53.8648

 - Thermochemistry -
 -------------------
 Temperature   298.150 Kelvin.  Pressure   1.00000 Atm.
 Atom     1 has atomic number  7 and mass  14.00307

 Molecular mass:   113.02253 amu.
 Principal axes and moments of inertia in atomic units:
                           1         2         3
     Eigenvalues --   353.167691018.801171338.17033
           X            0.99977  -0.02068   0.00500
           Y            0.02068   0.99979  -0.00034
           Z           -0.00499   0.00044   0.99999
 This molecule is an asymmetric top.
 Rotational symmetry number  1.
 Rotational temperatures (Kelvin)      0.24525     0.08502     0.06473
 Rotational constants (GHZ):           5.11015     1.77144     1.34866
 Zero-point vibrational energy     189328.1 (Joules/Mol)
                                   45.25051 (Kcal/Mol)
 Warning -- explicit consideration of   7 degrees of freedom as
           vibrations may cause significant error
 Vibrational temperatures:    147.81   181.45   326.80   555.60   638.43
          (Kelvin)            797.62   855.11   988.87  1080.47  1126.13
                             1145.57  1255.68  1330.77  1398.89  1504.63
                             1556.67  1686.63  1753.84  1896.85  1916.54
                             1931.49  2092.34  2194.68  2634.80  4695.46
                             4803.76  5044.99

 Zero-point correction=                           0.072111 (Hartree/Particle)
 Thermal correction to Energy=                    0.078478
 Thermal correction to Enthalpy=                  0.079423
 Thermal correction to Gibbs Free Energy=         0.040471
 Sum of electronic and zero-point Energies=           -430.599975
 Sum of electronic and thermal Energies=              -430.593607
 Sum of electronic and thermal Enthalpies=            -430.592663
 Sum of electronic and thermal Free Energies=         -430.631615

                     E (Thermal)             CV                S
                      KCal/Mol        Cal/Mol-Kelvin    Cal/Mol-Kelvin
 Total                   49.246             22.645             81.981
 Electronic               0.000              0.000              1.377
 Translational            0.889              2.981             40.083
 Rotational               0.889              2.981             27.667
 Vibrational             47.469             16.683             12.853
 Vibration     1          0.605              1.947              3.402
 Vibration     2          0.611              1.927              3.005
 Vibration     3          0.651              1.800              1.901
 Vibration     4          0.755              1.500              1.015
 Vibration     5          0.803              1.375              0.815
 Vibration     6          0.910              1.130              0.535
 Vibration     7          0.952              1.044              0.460

 Optimization completed.
    -- Stationary point found.
 Normal termination of Gaussian 16 at Sun Jun  4 02:36:16 2023.
