 Gaussian 16, Revision A.03,
 Gaussian 16:  ES64L-G16RevA.03 25-Dec-2016

 ----------------------------
 # opt freq 6-31+g(d,p) m062x
 ----------------------------

 ----
 test
 ----
 Symbolic Z-matrix:
 Charge =  0 Multiplicity = 1

 SCF Done:  E(RM062X) =  -242.084412720     A.U. after   13 cycles
 SCF Done:  E(RM062X) =  -242.127491760     A.U. after   12 cycles
 SCF Done:  E(RM062X) =  -242.128608064     A.U. after   13 cycles
 SCF Done:  E(RM062X) =  -242.146319423     A.U. after   11 cycles
 SCF Done:  E(RM062X) =  -242.146343628     A.U. after   11 cycles
 SCF Done:  E(RM062X) =  -242.146501904     A.U. after   11 cycles
 SCF Done:  E(RM062X) =  -242.146513645     A.U. after    9 cycles
 SCF Done:  E(RM062X) =  -242.146514065     A.U. after    9 cycles
 SCF Done:  E(RM062X) =  -242.146514586     A.U. after    8 cycles
 Optimization completed.
    -- Stationary point found.
 Normal termination of Gaussian 16 at Fri Jun  2 02:05:21 2023.

 ----------------------------------------------------------------------
 #N Geom=AllCheck Guess=TCheck SCRF=Check GenChk RM062X/6-31+G(d,p) Fre
 q
 ----------------------------------------------------------------------

 Structure from the checkpoint file:  "/scratch/gongke2021/2-H-Tz/Gau-12398.chk"
 ----
 test
 ----
 Charge =  0 Multiplicity = 1

                         Standard orientation:
 ---------------------------------------------------------------------
 Center     Atomic      Atomic             Coordinates (Angstroms)
 Number     Number       Type             X           Y           Z
 ---------------------------------------------------------------------
      1          7           0        1.046004   -0.001011    0.000036
      2          7           0        0.353758   -1.122999   -0.000070
      3          6           0       -0.908335   -0.702169    0.000069
      4          6           0       -0.906862    0.703927   -0.000062
      5          7           0        0.356096    1.122284    0.000036
      6          1           0       -1.728964   -1.402222    0.000104
      7          1           0       -1.725970    1.405709   -0.000094
      8          1           0        2.055107   -0.001952   -0.000061
 ---------------------------------------------------------------------

 SCF Done:  E(RM062X) =  -242.146514586     A.U. after    1 cycles

 The electronic state is 1-A.
 Alpha  occ. eigenvalues --  -14.88513 -14.81317 -14.81313 -10.58701 -10.58629
 Alpha  occ. eigenvalues --   -1.24175  -1.01209  -0.93773  -0.72997  -0.72170
 Alpha  occ. eigenvalues --   -0.63252  -0.56483  -0.52991  -0.52313  -0.40771
 Alpha  occ. eigenvalues --   -0.38064  -0.36057  -0.33910
 Alpha virt. eigenvalues --    0.02404   0.02509   0.03617   0.04071   0.06461
 Alpha virt. eigenvalues --    0.06676   0.07341   0.07672   0.09402   0.12709
 Alpha virt. eigenvalues --    0.13635   0.13759   0.17097   0.17939   0.21784

 Mulliken charges:
               1
     1  N   -0.196532
     2  N   -0.110491
     3  C   -0.151165
     4  C   -0.151255
     5  N   -0.110398
     6  H    0.178500
     7  H    0.178473
     8  H    0.362868
 Sum of Mulliken charges =   0.00000

 Dipole moment (field-independent basis, Debye):
    X=             -0.1294    Y=              0.0002    Z=             -0.0001  Tot=              0.1294
 Quadrupole moment (field-independent basis, Debye-Ang):
   XX=            -20.5253   YY=            -33.5985   ZZ=            -30.7043
   XY=             -0.0119   XZ=             -0.0003   YZ=             -0.0005

  Exact polarizability:  48.425  -0.001  45.834  -0.000  -0.000  26.346
 Approx polarizability:  63.155  -0.001  59.860   0.000  -0.000  32.323

                      1                      2                      3
                      A                      A                      A
 Frequencies --    608.6988               685.5292               737.1403
 Red. masses --      1.9567                 3.6234                 2.2194
 Frc consts  --      0.4272                 1.0033                 0.7105
 IR Inten    --     41.6379                 0.0000                53.6156

                      4                      5                      6
                      A                      A                      A
 Frequencies --    856.7636               912.3137               970.0327
 Red. masses --      1.1601                 1.3788                 6.3281
 Frc consts  --      0.5017                 0.6761                 3.5083
 IR Inten    --     68.6096                 0.0003                33.2312

                      7                      8                      9
                      A                      A                      A
 Frequencies --    998.9986              1097.4439              1168.1852
 Red. masses --      3.7662                 1.6651                 1.4807
 Frc consts  --      2.2145                 1.1816                 1.1905
 IR Inten    --     14.6506                 0.0802                33.1932

                     10                     11                     12
                      A                      A                      A
 Frequencies --   1225.0194              1303.2548              1339.2724
 Red. masses --      7.4657                 1.6644                 7.5082
 Frc consts  --      6.6009                 1.6656                 7.9345
 IR Inten    --     12.8874                14.9643                 0.1328

                     13                     14                     15
                      A                      A                      A
 Frequencies --   1459.0083              1473.0757              1584.6821
 Red. masses --      2.8833                 3.5611                 2.9465
 Frc consts  --      3.6162                 4.5528                 4.3595
 IR Inten    --      0.8499                 6.9676                 0.0812

                     16                     17                     18
                      A                      A                      A
 Frequencies --   3309.3947              3324.8296              3702.2487
 Red. masses --      1.0937                 1.1053                 1.0834
 Frc consts  --      7.0577                 7.1989                 8.7496
 IR Inten    --      0.0000                 0.0334               135.4816

 - Thermochemistry -
 -------------------
 Temperature   298.150 Kelvin.  Pressure   1.00000 Atm.
 Atom     1 has atomic number  7 and mass  14.00307

 Molecular mass:    69.03270 amu.
 Principal axes and moments of inertia in atomic units:
                           1         2         3
     Eigenvalues --   174.48993 182.59784 357.08776
           X            0.00256   1.00000  -0.00000
           Y            1.00000  -0.00256  -0.00001
           Z            0.00001   0.00000   1.00000
 This molecule is an asymmetric top.
 Rotational symmetry number  1.
 Rotational temperatures (Kelvin)      0.49638     0.47434     0.24256
 Rotational constants (GHZ):          10.34295     9.88369     5.05406
 Zero-point vibrational energy     160035.8 (Joules/Mol)
                                   38.24947 (Kcal/Mol)
 Warning -- explicit consideration of   1 degrees of freedom as
           vibrations may cause significant error
 Vibrational temperatures:    875.78   986.32  1060.58  1232.69  1312.62
          (Kelvin)           1395.66  1437.34  1578.98  1680.76  1762.53
                             1875.09  1926.91  2099.19  2119.43  2280.00
                             4761.48  4783.69  5326.71

 Zero-point correction=                           0.060954 (Hartree/Particle)
 Thermal correction to Energy=                    0.064448
 Thermal correction to Enthalpy=                  0.065392
 Thermal correction to Gibbs Free Energy=         0.034834
 Sum of electronic and zero-point Energies=           -242.085560
 Sum of electronic and thermal Energies=              -242.082067
 Sum of electronic and thermal Enthalpies=            -242.081123
 Sum of electronic and thermal Free Energies=         -242.111681

                     E (Thermal)             CV                S
                      KCal/Mol        Cal/Mol-Kelvin    Cal/Mol-Kelvin
 Total                   40.441             11.625             64.314
 Electronic               0.000              0.000              0.000
 Translational            0.889              2.981             38.613
 Rotational               0.889              2.981             23.946
 Vibrational             38.664              5.664              1.755
 Vibration     1          0.968              1.013              0.435

 Optimization completed.
    -- Stationary point found.
 Normal termination of Gaussian 16 at Fri Jun  2 02:05:46 2023.
