 Gaussian 16, Revision C.01,
 Gaussian 16:  ES64L-G16RevC.01  3-Jul-2019

 ----------------------------
 # opt freq 6-31+g(d,p) m062x
 ----------------------------

 ----
 test
 ----
 Symbolic Z-matrix:
 Charge =  0 Multiplicity = 1

 SCF Done:  E(RM062X) =  -507.060770526     A.U. after   14 cycles
 SCF Done:  E(RM062X) =  -507.057915005     A.U. after   14 cycles
 SCF Done:  E(RM062X) =  -507.062899234     A.U. after   13 cycles
 SCF Done:  E(RM062X) =  -507.064352894     A.U. after   12 cycles
 SCF Done:  E(RM062X) =  -507.065388937     A.U. after   13 cycles
 SCF Done:  E(RM062X) =  -507.066133742     A.U. after   13 cycles
 SCF Done:  E(RM062X) =  -507.066343491     A.U. after   12 cycles
 SCF Done:  E(RM062X) =  -507.066563883     A.U. after   12 cycles
 SCF Done:  E(RM062X) =  -507.066761397     A.U. after   12 cycles
 SCF Done:  E(RM062X) =  -507.066816429     A.U. after   11 cycles
 SCF Done:  E(RM062X) =  -507.067093299     A.U. after    9 cycles
 SCF Done:  E(RM062X) =  -507.067096046     A.U. after   10 cycles
 SCF Done:  E(RM062X) =  -507.067096319     A.U. after    9 cycles
 SCF Done:  E(RM062X) =  -507.067097757     A.U. after   10 cycles
 SCF Done:  E(RM062X) =  -507.067098234     A.U. after    8 cycles
 SCF Done:  E(RM062X) =  -507.067099968     A.U. after    9 cycles
 SCF Done:  E(RM062X) =  -507.067100778     A.U. after    9 cycles
 SCF Done:  E(RM062X) =  -507.067100936     A.U. after    8 cycles
 SCF Done:  E(RM062X) =  -507.067101054     A.U. after    8 cycles
 Optimization completed.
    -- Stationary point found.
 Normal termination of Gaussian 16 at Thu Dec  7 07:55:15 2023.

 ----------------------------------------------------------------------
 #N Geom=AllCheck Guess=TCheck SCRF=Check GenChk RM062X/6-31+G(d,p) Fre
 q
 ----------------------------------------------------------------------

 Structure from the checkpoint file:  "/home/gau/soft/scratch/Gau-77714.chk"
 ----
 test
 ----
 Charge =  0 Multiplicity = 1

                         Standard orientation:
 ---------------------------------------------------------------------
 Center     Atomic      Atomic             Coordinates (Angstroms)
 Number     Number       Type             X           Y           Z
 ---------------------------------------------------------------------
      1          7           0        0.241941   -1.032535    0.047081
      2          7           0        0.485486    0.289845   -0.000747
      3          6           0        1.821419    0.527783   -0.039408
      4          6           0        2.379226   -0.722354   -0.015057
      5          7           0        1.374127   -1.646047    0.038372
      6          1           0        2.212201    1.531501   -0.078211
      7          1           0        3.415555   -1.018386   -0.032173
      8          1           0       -1.624585   -2.068728    0.026132
      9          6           0       -0.544383    1.308646    0.008496
     10          8           0       -0.200237    2.456930    0.010792
     11          8           0       -1.774042    0.877745    0.020161
     12          1           0       -1.951279   -0.109875   -0.024558
     13          8           0       -2.472991   -1.623556   -0.118527
     14          1           0       -3.122186   -1.986760    0.492281
 ---------------------------------------------------------------------

 SCF Done:  E(RM062X) =  -507.067101054     A.U. after    1 cycles

 The electronic state is 1-A.
 Alpha  occ. eigenvalues --  -19.70110 -19.68962 -19.65834 -14.88840 -14.86266
 Alpha  occ. eigenvalues --  -14.82166 -10.74851 -10.62465 -10.60116  -1.27955
 Alpha  occ. eigenvalues --   -1.23909  -1.18117  -1.16750  -1.04721  -0.93685
 Alpha  occ. eigenvalues --   -0.79984  -0.74556  -0.72829  -0.68355  -0.65155
 Alpha  occ. eigenvalues --   -0.60700  -0.57538  -0.56245  -0.54333  -0.53900
 Alpha  occ. eigenvalues --   -0.51982  -0.48072  -0.45363  -0.43463  -0.41589
 Alpha  occ. eigenvalues --   -0.40371  -0.38682  -0.36795  -0.35030
 Alpha virt. eigenvalues --   -0.02542   0.01228   0.02686   0.03761   0.04005
 Alpha virt. eigenvalues --    0.05006   0.05197   0.05971   0.07178   0.08746
 Alpha virt. eigenvalues --    0.09085   0.10132   0.10973   0.12036   0.12189

 Mulliken charges:
               1
     1  N   -0.119752
     2  N   -0.184270
     3  C   -0.036173
     4  C   -0.246985
     5  N   -0.208724
     6  H    0.232669
     7  H    0.189081
     8  H    0.433516
     9  C    0.766099
    10  O   -0.427277
    11  O   -0.538175
    12  H    0.505090
    13  O   -0.765592
    14  H    0.400494
 Sum of Mulliken charges =  -0.00000

 Dipole moment (field-independent basis, Debye):
    X=              0.8429    Y=             -2.3636    Z=              1.1046  Tot=              2.7417
 Quadrupole moment (field-independent basis, Debye-Ang):
   XX=            -41.3709   YY=            -59.8109   ZZ=            -52.4504
   XY=             10.1795   XZ=             -4.4307   YZ=             -2.8477

  Exact polarizability:      80.615      -0.399      80.387      -1.079      -0.763      40.424
 Approx polarizability:      93.382       1.875     102.442      -1.398      -1.292      50.991

                      1                      2                      3
                      A                      A                      A
 Frequencies --     43.1025               103.7202               157.5400
 Red. masses --      5.5895                 7.4595                 4.2545
 Frc consts  --      0.0061                 0.0473                 0.0622
 IR Inten    --     13.9297                 2.5092                 1.5302

                      4                      5                      6
                      A                      A                      A
 Frequencies --    164.3374               173.7792               242.5672
 Red. masses --      6.4553                 4.6624                 1.2727
 Frc consts  --      0.1027                 0.0830                 0.0441
 IR Inten    --      2.2765                16.0983               145.5732

                      7                      8                      9
                      A                      A                      A
 Frequencies --    258.0683               366.4402               441.6116
 Red. masses --      3.6470                 1.3016                 4.0969
 Frc consts  --      0.1431                 0.1030                 0.4707
 IR Inten    --     11.1313               143.0204                50.8271

                     10                     11                     12
                      A                      A                      A
 Frequencies --    514.3895               581.6142               631.2827
 Red. masses --      2.0305                 2.5120                 3.9904
 Frc consts  --      0.3165                 0.5007                 0.9369
 IR Inten    --     35.7858                64.3604                 1.1249

                     13                     14                     15
                      A                      A                      A
 Frequencies --    715.9536               757.4142               779.1103
 Red. masses --      8.3881                 8.2632                 8.5877
 Frc consts  --      2.5333                 2.7929                 3.0713
 IR Inten    --      0.1992                73.2456                56.7570

                     16                     17                     18
                      A                      A                      A
 Frequencies --    828.5079               915.9127               934.7091
 Red. masses --      1.2239                 1.3562                 1.0911
 Frc consts  --      0.4950                 0.6703                 0.5616
 IR Inten    --     46.3221                 0.9084               135.1000

                     19                     20                     21
                      A                      A                      A
 Frequencies --    972.4005              1058.7291              1078.0364
 Red. masses --      5.3454                 3.7809                 1.5078
 Frc consts  --      2.9779                 2.4969                 1.0324
 IR Inten    --      3.3625                14.1573               109.1993

                     22                     23                     24
                      A                      A                      A
 Frequencies --   1154.5309              1265.0984              1284.6017
 Red. masses --      2.0034                 6.6563                 2.1597
 Frc consts  --      1.5734                 6.2767                 2.0998
 IR Inten    --      4.4027                38.9545                90.1240

                     25                     26                     27
                      A                      A                      A
 Frequencies --   1328.8828              1367.6911              1423.0835
 Red. masses --      1.7807                 5.4725                 5.6050
 Frc consts  --      1.8527                 6.0314                 6.6879
 IR Inten    --    262.4924               275.6358               279.4945

                     28                     29                     30
                      A                      A                      A
 Frequencies --   1496.5380              1571.1687              1592.0343
 Red. masses --      6.3201                 5.0959                 1.0834
 Frc consts  --      8.3396                 7.4117                 1.6179
 IR Inten    --    161.6523                 3.0404               166.3546

                     31                     32                     33
                      A                      A                      A
 Frequencies --   1929.8349              3072.8525              3323.3880
 Red. masses --     11.1692                 1.0828                 1.0941
 Frc consts  --     24.5083                 6.0242                 7.1196
 IR Inten    --    461.6132              1536.2150                 7.2240

                     34                     35                     36
                      A                      A                      A
 Frequencies --   3344.2140              3814.3772              3970.3334
 Red. masses --      1.1083                 1.0483                 1.0797
 Frc consts  --      7.3032                 8.9867                10.0274
 IR Inten    --     11.7347               124.4562               206.3682

 - Thermochemistry -
 -------------------
 Temperature   298.150 Kelvin.  Pressure   1.00000 Atm.
 Atom     1 has atomic number  7 and mass  14.00307

 Molecular mass:   131.03309 amu.
 Principal axes and moments of inertia in atomic units:
                           1         2         3
     Eigenvalues --   879.219041162.049372037.39038
           X            0.99242   0.12278  -0.00572
           Y           -0.12281   0.99242  -0.00476
           Z            0.00509   0.00542   0.99997
 This molecule is an asymmetric top.
 Rotational symmetry number  1.
 Warning -- assumption of classical behavior for rotation
           may cause significant error
 Rotational temperatures (Kelvin)      0.09851     0.07454     0.04251
 Rotational constants (GHZ):           2.05266     1.55307     0.88581
 Zero-point vibrational energy     261132.0 (Joules/Mol)
                                   62.41204 (Kcal/Mol)
 Warning -- explicit consideration of  11 degrees of freedom as
           vibrations may cause significant error
 Vibrational temperatures:     62.01   149.23   226.66   236.44   250.03
          (Kelvin)            349.00   371.30   527.23   635.38   740.09
                              836.81   908.27  1030.10  1089.75  1120.97
                             1192.04  1317.79  1344.84  1399.07  1523.28
                             1551.05  1661.11  1820.19  1848.26  1911.97
                             1967.80  2047.50  2153.18  2260.56  2290.58
                             2776.60  4421.15  4781.61  4811.58  5488.04
                             5712.42

 Zero-point correction=                           0.099460 (Hartree/Particle)
 Thermal correction to Energy=                    0.108468
 Thermal correction to Enthalpy=                  0.109412
 Thermal correction to Gibbs Free Energy=         0.064685
 Sum of electronic and zero-point Energies=           -506.967641
 Sum of electronic and thermal Energies=              -506.958633
 Sum of electronic and thermal Enthalpies=            -506.957689
 Sum of electronic and thermal Free Energies=         -507.002416

                     E (Thermal)             CV                S
                      KCal/Mol        Cal/Mol-Kelvin    Cal/Mol-Kelvin
 Total                   68.064             31.127             94.136
 Electronic               0.000              0.000              0.000
 Translational            0.889              2.981             40.524
 Rotational               0.889              2.981             29.122
 Vibrational             66.287             25.166             24.490
 Vibration     1          0.595              1.980              5.111
 Vibration     2          0.605              1.946              3.383
 Vibration     3          0.621              1.894              2.579
 Vibration     4          0.623              1.886              2.499
 Vibration     5          0.627              1.875              2.394
 Vibration     6          0.659              1.775              1.784
 Vibration     7          0.667              1.749              1.675
 Vibration     8          0.739              1.541              1.095
 Vibration     9          0.801              1.379              0.822
 Vibration    10          0.869              1.218              0.623
 Vibration    11          0.938              1.071              0.482

 Optimization completed.
    -- Stationary point found.
 Normal termination of Gaussian 16 at Thu Dec  7 07:55:58 2023.
