 Gaussian 16, Revision A.03,
 Gaussian 16:  ES64L-G16RevA.03 25-Dec-2016

 ----------------------------
 # opt freq 6-31+g(d,p) m062x
 ----------------------------

 ----
 test
 ----
 Symbolic Z-matrix:
 Charge = -1 Multiplicity = 2

 SCF Done:  E(UM062X) =  -430.640021770     A.U. after   19 cycles
 SCF Done:  E(UM062X) =  -430.654525889     A.U. after   16 cycles
 SCF Done:  E(UM062X) =  -430.658131672     A.U. after   18 cycles
 SCF Done:  E(UM062X) =  -430.661840987     A.U. after   18 cycles
 SCF Done:  E(UM062X) =  -430.663588252     A.U. after   18 cycles
 SCF Done:  E(UM062X) =  -430.664741432     A.U. after   17 cycles
 SCF Done:  E(UM062X) =  -430.665364918     A.U. after   15 cycles
 SCF Done:  E(UM062X) =  -430.665548137     A.U. after   15 cycles
 SCF Done:  E(UM062X) =  -430.665574918     A.U. after   14 cycles
 SCF Done:  E(UM062X) =  -430.665589985     A.U. after   14 cycles
 SCF Done:  E(UM062X) =  -430.665593839     A.U. after   13 cycles
 SCF Done:  E(UM062X) =  -430.665595863     A.U. after   13 cycles
 SCF Done:  E(UM062X) =  -430.665596492     A.U. after   11 cycles
 SCF Done:  E(UM062X) =  -430.665596723     A.U. after   11 cycles
 Optimization completed.
    -- Stationary point found.
 Normal termination of Gaussian 16 at Sun Jun  4 03:17:10 2023.

 ----------------------------------------------------------------------
 #N Geom=AllCheck Guess=TCheck SCRF=Check GenChk UM062X/6-31+G(d,p) Fre
 q
 ----------------------------------------------------------------------

 Structure from the checkpoint file:  "/scratch/gongke2021/PC/Gau-17894.chk"
 ----
 test
 ----
 Charge = -1 Multiplicity = 2

                         Standard orientation:
 ---------------------------------------------------------------------
 Center     Atomic      Atomic             Coordinates (Angstroms)
 Number     Number       Type             X           Y           Z
 ---------------------------------------------------------------------
      1          7           0       -0.701946   -1.113297   -0.000106
      2          7           0       -0.000160    0.105410   -0.000335
      3          6           0       -0.900721    1.167924   -0.000139
      4          6           0       -2.132762    0.535956    0.000116
      5          7           0       -2.006833   -0.801513    0.000176
      6          1           0       -0.569995    2.191440   -0.000102
      7          1           0       -3.112387    0.996600    0.000237
      8          1           0        1.149616   -1.745938    0.000320
      9          6           0        1.356353    0.129051    0.000037
     10          8           0        2.044077    1.149510    0.000165
     11          8           0        1.900688   -1.121246   -0.000001
 ---------------------------------------------------------------------

 SCF Done:  E(UM062X) =  -430.665596723     A.U. after    1 cycles

 The electronic state is 2-A.
 Alpha  occ. eigenvalues --  -19.52300 -19.45674 -14.67550 -14.63214 -14.60693
 Alpha  occ. eigenvalues --  -10.53223 -10.41439 -10.41321  -1.07346  -1.00335
 Alpha  occ. eigenvalues --   -0.96865  -0.84178  -0.72579  -0.61876  -0.52695
 Alpha  occ. eigenvalues --   -0.51729  -0.47841  -0.40663  -0.37612  -0.37329
 Alpha  occ. eigenvalues --   -0.34302  -0.33070  -0.31414  -0.24164  -0.23578
 Alpha  occ. eigenvalues --   -0.20699  -0.19995  -0.17708  -0.16460   0.00885
 Alpha virt. eigenvalues --    0.14147   0.16134   0.17010   0.18038   0.18671
 Alpha virt. eigenvalues --    0.19056   0.20206   0.21628   0.24034   0.24119
 Alpha virt. eigenvalues --    0.25488   0.26035   0.26601   0.29305   0.29964

  Beta  occ. eigenvalues --  -19.52267 -19.45423 -14.67513 -14.62638 -14.60483
  Beta  occ. eigenvalues --  -10.53103 -10.41419 -10.41184  -1.06910  -0.99510
  Beta  occ. eigenvalues --   -0.96264  -0.83377  -0.71609  -0.60791  -0.52230
  Beta  occ. eigenvalues --   -0.51436  -0.47107  -0.39049  -0.37191  -0.36968
  Beta  occ. eigenvalues --   -0.33752  -0.31400  -0.31185  -0.22640  -0.22487
  Beta  occ. eigenvalues --   -0.20012  -0.17545  -0.16940  -0.13022
  Beta virt. eigenvalues --    0.13741   0.15257   0.15264   0.16145   0.17815
  Beta virt. eigenvalues --    0.18245   0.18416   0.20310   0.20634   0.22463
  Beta virt. eigenvalues --    0.23044   0.25022   0.26329   0.27236   0.28832

 Mulliken charges and spin densities:
               1          2
     1  N   -0.409001   0.378210
     2  N   -0.120330  -0.049441
     3  C   -0.236092   0.365200
     4  C   -0.201222  -0.123711
     5  N   -0.247222   0.169353
     6  H    0.166451  -0.015560
     7  H    0.113471   0.002864
     8  H    0.412460  -0.002828
     9  C    0.681934   0.142159
    10  O   -0.605779   0.118915
    11  O   -0.554671   0.014840
 Sum of Mulliken charges =  -1.00000   1.00000

 Dipole moment (field-independent basis, Debye):
    X=             -1.1694    Y=              0.8382    Z=              0.0003  Tot=              1.4388
 Quadrupole moment (field-independent basis, Debye-Ang):
   XX=            -71.8592   YY=            -55.7236   ZZ=            -50.7890
   XY=             -9.7443   XZ=             -0.0003   YZ=             -0.0012

  Exact polarizability: 106.386   3.684  82.547   0.000  -0.002  49.626
 Approx polarizability: 114.503   9.288 102.517  -0.000  -0.002  57.095

                      1                      2                      3
                      A                      A                      A
 Frequencies --    119.5928               163.9553               236.7585
 Red. masses --      6.8769                 7.3469                 6.4926
 Frc consts  --      0.0579                 0.1164                 0.2144
 IR Inten    --      1.9747                13.9035                20.0471

                      4                      5                      6
                      A                      A                      A
 Frequencies --    446.7672               447.0460               502.8039
 Red. masses --      7.7645                 8.0512                 1.2699
 Frc consts  --      0.9131                 0.9480                 0.1892
 IR Inten    --     39.3554                 0.7455                41.0981

                      7                      8                      9
                      A                      A                      A
 Frequencies --    566.7995               599.5847               632.1120
 Red. masses --      7.1906                 1.3960                 2.5935
 Frc consts  --      1.3610                 0.2957                 0.6106
 IR Inten    --     10.5919                62.9129                43.7319

                     10                     11                     12
                      A                      A                      A
 Frequencies --    654.3017               726.7862               847.7561
 Red. masses --     10.6675                 9.7662                 1.2372
 Frc consts  --      2.6907                 3.0394                 0.5239
 IR Inten    --     25.9069                 5.8883                16.2980

                     13                     14                     15
                      A                      A                      A
 Frequencies --    909.3304               939.7766              1047.2610
 Red. masses --      4.8587                 5.0146                 1.8062
 Frc consts  --      2.3671                 2.6094                 1.1671
 IR Inten    --     15.2492                20.0905                24.2676

                     16                     17                     18
                      A                      A                      A
 Frequencies --   1107.3467              1135.5625              1200.9868
 Red. masses --      3.5235                 4.2034                 3.2688
 Frc consts  --      2.5456                 3.1935                 2.7779
 IR Inten    --    112.6728               175.7336                 5.5560

                     19                     20                     21
                      A                      A                      A
 Frequencies --   1294.0374              1370.2185              1419.3262
 Red. masses --      3.1799                 1.9485                 2.4240
 Frc consts  --      3.1373                 2.1554                 2.8771
 IR Inten    --     11.5721                85.3747               191.7091

                     22                     23                     24
                      A                      A                      A
 Frequencies --   1478.5424              1526.5565              1804.2278
 Red. masses --      3.7646                 8.6174                 8.0377
 Frc consts  --      4.8489                11.8318                15.4158
 IR Inten    --     26.4956               201.9513               830.1017

                     25                     26                     27
                      A                      A                      A
 Frequencies --   3254.3304              3349.0211              3665.6231
 Red. masses --      1.0940                 1.0974                 1.0648
 Frc consts  --      6.8261                 7.2519                 8.4297
 IR Inten    --     32.6157                 1.2469                71.3016

 - Thermochemistry -
 -------------------
 Temperature   298.150 Kelvin.  Pressure   1.00000 Atm.
 Atom     1 has atomic number  7 and mass  14.00307

 Molecular mass:   113.02253 amu.
 Principal axes and moments of inertia in atomic units:
                           1         2         3
     Eigenvalues --   344.424501020.917191365.34167
           X            0.99944  -0.03352  -0.00000
           Y            0.03352   0.99944  -0.00001
           Z            0.00000   0.00001   1.00000
 This molecule is an asymmetric top.
 Rotational symmetry number  1.
 Rotational temperatures (Kelvin)      0.25147     0.08484     0.06344
 Rotational constants (GHZ):           5.23987     1.76776     1.32182
 Zero-point vibrational energy     188091.3 (Joules/Mol)
                                   44.95490 (Kcal/Mol)
 Warning -- explicit consideration of   8 degrees of freedom as
           vibrations may cause significant error
 Vibrational temperatures:    172.07   235.90   340.64   642.80   643.20
          (Kelvin)            723.42   815.50   862.67   909.47   941.39
                             1045.68  1219.73  1308.32  1352.13  1506.78
                             1593.22  1633.82  1727.95  1861.83  1971.44
                             2042.09  2127.29  2196.37  2595.88  4682.26
                             4818.49  5274.01

 Zero-point correction=                           0.071640 (Hartree/Particle)
 Thermal correction to Energy=                    0.078063
 Thermal correction to Enthalpy=                  0.079007
 Thermal correction to Gibbs Free Energy=         0.040249
 Sum of electronic and zero-point Energies=           -430.593957
 Sum of electronic and thermal Energies=              -430.587534
 Sum of electronic and thermal Enthalpies=            -430.586590
 Sum of electronic and thermal Free Energies=         -430.625348

                     E (Thermal)             CV                S
                      KCal/Mol        Cal/Mol-Kelvin    Cal/Mol-Kelvin
 Total                   48.985             23.452             81.573
 Electronic               0.000              0.000              1.377
 Translational            0.889              2.981             40.083
 Rotational               0.889              2.981             27.664
 Vibrational             47.208             17.491             12.448
 Vibration     1          0.609              1.933              3.107
 Vibration     2          0.623              1.887              2.504
 Vibration     3          0.656              1.784              1.827
 Vibration     4          0.806              1.368              0.806
 Vibration     5          0.806              1.367              0.805
 Vibration     6          0.858              1.244              0.651
 Vibration     7          0.923              1.103              0.510
 Vibration     8          0.958              1.033              0.450

 Optimization completed.
    -- Stationary point found.
 Normal termination of Gaussian 16 at Sun Jun  4 03:18:02 2023.
