 Gaussian 16, Revision A.03,
 Gaussian 16:  ES64L-G16RevA.03 25-Dec-2016

 ----------------------------
 # opt freq 6-31+g(d,p) m062x
 ----------------------------

 ----
 test
 ----
 Symbolic Z-matrix:
 Charge = -1 Multiplicity = 2

 SCF Done:  E(UM062X) =  -583.421800465     A.U. after   19 cycles
 SCF Done:  E(UM062X) =  -583.464108660     A.U. after   18 cycles
 SCF Done:  E(UM062X) =  -583.460892762     A.U. after   18 cycles
 SCF Done:  E(UM062X) =  -583.488019549     A.U. after   16 cycles
 SCF Done:  E(UM062X) =  -583.492171936     A.U. after   16 cycles
 SCF Done:  E(UM062X) =  -583.494488317     A.U. after   16 cycles
 SCF Done:  E(UM062X) =  -583.496154241     A.U. after   15 cycles
 SCF Done:  E(UM062X) =  -583.497454836     A.U. after   14 cycles
 SCF Done:  E(UM062X) =  -583.498615723     A.U. after   16 cycles
 SCF Done:  E(UM062X) =  -583.500139097     A.U. after   17 cycles
 SCF Done:  E(UM062X) =  -583.513825540     A.U. after   12 cycles
 SCF Done:  E(UM062X) =  -583.513840299     A.U. after   13 cycles
 SCF Done:  E(UM062X) =  -583.513857548     A.U. after   13 cycles
 SCF Done:  E(UM062X) =  -583.513862770     A.U. after   12 cycles
 SCF Done:  E(UM062X) =  -583.513867411     A.U. after   11 cycles
 SCF Done:  E(UM062X) =  -583.513871112     A.U. after   11 cycles
 SCF Done:  E(UM062X) =  -583.513872191     A.U. after   11 cycles
 SCF Done:  E(UM062X) =  -583.513872608     A.U. after   10 cycles
 SCF Done:  E(UM062X) =  -583.513872857     A.U. after   10 cycles
 Optimization completed.
    -- Stationary point found.
 Normal termination of Gaussian 16 at Sun Jun  4 12:46:27 2023.

 ----------------------------------------------------------------------
 #N Geom=AllCheck Guess=TCheck SCRF=Check GenChk UM062X/6-31+G(d,p) Fre
 q
 ----------------------------------------------------------------------

 Structure from the checkpoint file:  "/scratch/gongke2021/RC/Gau-15003.chk"
 ----
 test
 ----
 Charge = -1 Multiplicity = 2

                         Standard orientation:
 ---------------------------------------------------------------------
 Center     Atomic      Atomic             Coordinates (Angstroms)
 Number     Number       Type             X           Y           Z
 ---------------------------------------------------------------------
      1          7           0        0.281139   -0.984393   -0.069386
      2          7           0        0.819910    0.312133   -0.179029
      3          6           0        2.173164    0.189561    0.026844
      4          6           0        2.433016   -1.161624    0.076635
      5          7           0        1.317864   -1.903924   -0.059598
      6          1           0        2.789995    1.068587    0.103274
      7          1           0        3.393280   -1.645407    0.191860
      8          1           0       -0.440498   -1.170379   -0.773048
      9          6           0        0.011728    1.519594   -0.053825
     10          8           0        0.663894    2.559181    0.046582
     11          8           0       -1.229530    1.306392   -0.099420
     12          1           0       -2.739413   -1.129515   -0.484473
     13          8           0       -2.452883   -0.853418   -1.368464
     14          1           0       -2.123443    0.049556   -1.193071
     15          1           0       -2.024036    0.171647    1.184400
     16          8           0       -2.244325   -0.693080    1.584715
     17          1           0       -1.392968   -1.148982    1.521920
 ---------------------------------------------------------------------

 SCF Done:  E(UM062X) =  -583.513872857     A.U. after    1 cycles

 The electronic state is 2-A.
 Alpha  occ. eigenvalues --  -19.50305 -19.50138 -19.46750 -19.46015 -14.71240
 Alpha  occ. eigenvalues --  -14.69898 -14.65483 -10.54466 -10.45860 -10.45653
 Alpha  occ. eigenvalues --   -1.07508  -1.02723  -0.99187  -0.98114  -0.94482
 Alpha  occ. eigenvalues --   -0.86854  -0.79521  -0.63358  -0.57350  -0.54935
 Alpha  occ. eigenvalues --   -0.47022  -0.45419  -0.45087  -0.43129  -0.39822
 Alpha  occ. eigenvalues --   -0.39289  -0.38273  -0.35876  -0.34774  -0.33458
 Alpha  occ. eigenvalues --   -0.32953  -0.26079  -0.25775  -0.25137  -0.24905
 Alpha  occ. eigenvalues --   -0.23604  -0.21236  -0.19878  -0.18965  -0.05774
 Alpha virt. eigenvalues --    0.12109   0.14849   0.15096   0.16503   0.17195
 Alpha virt. eigenvalues --    0.17511   0.18397   0.19926   0.21050   0.22809
 Alpha virt. eigenvalues --    0.23210   0.23675   0.25184   0.25388   0.26770

  Beta  occ. eigenvalues --  -19.50287 -19.50135 -19.46721 -19.45952 -14.70887
  Beta  occ. eigenvalues --  -14.69501 -14.64902 -10.54469 -10.45781 -10.45644
  Beta  occ. eigenvalues --   -1.06579  -1.02224  -0.99150  -0.98086  -0.94344
  Beta  occ. eigenvalues --   -0.85310  -0.78602  -0.61959  -0.56879  -0.54189
  Beta  occ. eigenvalues --   -0.46742  -0.45353  -0.43770  -0.42329  -0.39152
  Beta  occ. eigenvalues --   -0.38906  -0.37718  -0.35635  -0.33591  -0.33137
  Beta  occ. eigenvalues --   -0.32779  -0.25810  -0.25053  -0.24574  -0.21386
  Beta  occ. eigenvalues --   -0.20803  -0.20088  -0.19137  -0.18636
  Beta virt. eigenvalues --    0.10983   0.11834   0.14247   0.14887   0.15945
  Beta virt. eigenvalues --    0.17416   0.17749   0.18188   0.19052   0.20510
  Beta virt. eigenvalues --    0.22116   0.23068   0.23543   0.24968   0.25571

 Mulliken charges and spin densities:
               1          2
     1  N   -0.495908   0.157651
     2  N   -0.026190   0.148135
     3  C   -0.124816   0.313342
     4  C   -0.207756  -0.131277
     5  N   -0.350430   0.441058
     6  H    0.191447  -0.013140
     7  H    0.138001   0.003724
     8  H    0.392939   0.019990
     9  C    0.765090   0.007473
    10  O   -0.595758   0.034189
    11  O   -0.796095   0.016512
    12  H    0.407169   0.000025
    13  O   -0.801352   0.000051
    14  H    0.458261   0.000309
    15  H    0.455919   0.000057
    16  O   -0.823726   0.000764
    17  H    0.413204   0.001139
 Sum of Mulliken charges =  -1.00000   1.00000

 Dipole moment (field-independent basis, Debye):
    X=              3.6996    Y=             -2.2390    Z=              0.1238  Tot=              4.3262
 Quadrupole moment (field-independent basis, Debye-Ang):
   XX=            -76.7395   YY=            -87.5219   ZZ=            -71.0495
   XY=             -1.6815   XZ=              0.3898   YZ=             -1.5643

  Exact polarizability: 103.751  -2.000 101.034   1.809   0.215  61.739
 Approx polarizability: 112.635   3.546 120.042   2.526   0.107  72.053

                      1                      2                      3
                      A                      A                      A
 Frequencies --     59.9577                80.8643               100.8512
 Red. masses --      7.1276                 6.5672                 8.6327
 Frc consts  --      0.0151                 0.0253                 0.0517
 IR Inten    --      0.9276                 0.4809                 7.4448

                      4                      5                      6
                      A                      A                      A
 Frequencies --    113.3809               138.3245               152.7718
 Red. masses --      8.8503                 8.3694                 6.3901
 Frc consts  --      0.0670                 0.0944                 0.0879
 IR Inten    --      3.8831                 5.6206                 4.2850

                      7                      8                      9
                      A                      A                      A
 Frequencies --    194.9609               203.4547               246.6664
 Red. masses --      6.6611                 6.0368                 6.1888
 Frc consts  --      0.1492                 0.1472                 0.2219
 IR Inten    --      5.1424                 7.6879                13.7526

                     10                     11                     12
                      A                      A                      A
 Frequencies --    305.2218               390.2850               399.1796
 Red. masses --      1.1171                 1.0940                 2.8307
 Frc consts  --      0.0613                 0.0982                 0.2658
 IR Inten    --     36.4482                66.7526                24.2156

                     13                     14                     15
                      A                      A                      A
 Frequencies --    423.8611               443.4844               552.9512
 Red. masses --      4.9648                 1.1990                 6.9256
 Frc consts  --      0.5255                 0.1389                 1.2476
 IR Inten    --     14.8237                52.7382                10.2686

                     16                     17                     18
                      A                      A                      A
 Frequencies --    587.4609               609.3879               698.7933
 Red. masses --      2.5089                 1.3595                 1.2238
 Frc consts  --      0.5101                 0.2974                 0.3521
 IR Inten    --     30.8045                14.9043                49.7854

                     19                     20                     21
                      A                      A                      A
 Frequencies --    731.3503               756.3622               784.7244
 Red. masses --      1.1182                 1.4073                 9.6688
 Frc consts  --      0.3524                 0.4743                 3.5080
 IR Inten    --    439.4575               153.0089               126.6100

                     22                     23                     24
                      A                      A                      A
 Frequencies --    793.6550               874.3736               894.1431
 Red. masses --      3.9261                 1.4517                 1.7227
 Frc consts  --      1.4571                 0.6539                 0.8115
 IR Inten    --    128.2626                 7.6144                18.1658

                     25                     26                     27
                      A                      A                      A
 Frequencies --    931.2250               974.8403              1065.8355
 Red. masses --      3.1830                 3.2049                 1.5588
 Frc consts  --      1.6263                 1.7945                 1.0433
 IR Inten    --     24.2277                38.6581               101.3032

                     28                     29                     30
                      A                      A                      A
 Frequencies --   1091.5509              1195.0426              1234.5463
 Red. masses --      2.1109                 2.9769                 4.2861
 Frc consts  --      1.4819                 2.5049                 3.8488
 IR Inten    --     46.5723                76.7054                29.4488

                     31                     32                     33
                      A                      A                      A
 Frequencies --   1323.7470              1355.0191              1379.2933
 Red. masses --      8.0963                 5.4554                 1.8265
 Frc consts  --      8.3588                 5.9015                 2.0473
 IR Inten    --    355.5401               371.0500                81.0423

                     34                     35                     36
                      A                      A                      A
 Frequencies --   1487.1645              1536.1703              1674.3606
 Red. masses --      1.6976                 3.9901                 1.0964
 Frc consts  --      2.2121                 5.5477                 1.8110
 IR Inten    --      3.1083                 6.8300               337.4088

                     37                     38                     39
                      A                      A                      A
 Frequencies --   1699.2067              1811.4649              3275.0092
 Red. masses --      1.0895                 9.7447                 1.0944
 Frc consts  --      1.8534                18.8399                 6.9161
 IR Inten    --    185.0732               646.5488                14.9491

                     40                     41                     42
                      A                      A                      A
 Frequencies --   3345.9152              3434.1034              3648.9665
 Red. masses --      1.0984                 1.0815                 1.0609
 Frc consts  --      7.2448                 7.5147                 8.3228
 IR Inten    --      9.6317               179.2443               152.7577

                     43                     44                     45
                      A                      A                      A
 Frequencies --   3678.5486              3833.7057              3859.2062
 Red. masses --      1.0574                 1.0693                 1.0667
 Frc consts  --      8.4306                 9.2599                 9.3601
 IR Inten    --    518.2241               160.9902                99.8339

 - Thermochemistry -
 -------------------
 Temperature   298.150 Kelvin.  Pressure   1.00000 Atm.
 Atom     1 has atomic number  7 and mass  14.00307

 Molecular mass:   149.04366 amu.
 Principal axes and moments of inertia in atomic units:
                           1         2         3
     Eigenvalues --  1236.495791733.646902419.76921
           X            0.99987   0.01603   0.00183
           Y           -0.01602   0.99987  -0.00190
           Z           -0.00186   0.00187   1.00000
 This molecule is an asymmetric top.
 Rotational symmetry number  1.
 Warning -- assumption of classical behavior for rotation
           may cause significant error
 Rotational temperatures (Kelvin)      0.07005     0.04996     0.03579
 Rotational constants (GHZ):           1.45956     1.04101     0.74583
 Zero-point vibrational energy     325213.1 (Joules/Mol)
                                   77.72780 (Kcal/Mol)
 Warning -- explicit consideration of  17 degrees of freedom as
           vibrations may cause significant error
 Vibrational temperatures:     86.27   116.35   145.10   163.13   199.02
          (Kelvin)            219.80   280.51   292.73   354.90   439.15
                              561.53   574.33   609.84   638.08   795.57
                              845.23   876.77  1005.41  1052.25  1088.24
                             1129.04  1141.89  1258.03  1286.47  1339.83
                             1402.58  1533.50  1570.50  1719.40  1776.24
                             1904.58  1949.57  1984.50  2139.70  2210.21
                             2409.03  2444.78  2606.29  4712.01  4814.03
                             4940.91  5250.05  5292.61  5515.85  5552.54

 Zero-point correction=                           0.123867 (Hartree/Particle)
 Thermal correction to Energy=                    0.135555
 Thermal correction to Enthalpy=                  0.136499
 Thermal correction to Gibbs Free Energy=         0.085479
 Sum of electronic and zero-point Energies=           -583.390006
 Sum of electronic and thermal Energies=              -583.378318
 Sum of electronic and thermal Enthalpies=            -583.377374
 Sum of electronic and thermal Free Energies=         -583.428393

                     E (Thermal)             CV                S
                      KCal/Mol        Cal/Mol-Kelvin    Cal/Mol-Kelvin
 Total                   85.062             40.855            107.380
 Electronic               0.000              0.000              1.377
 Translational            0.889              2.981             40.908
 Rotational               0.889              2.981             30.029
 Vibrational             83.285             34.893             35.066
 Vibration     1          0.597              1.973              4.459
 Vibration     2          0.600              1.962              3.870
 Vibration     3          0.604              1.948              3.438
 Vibration     4          0.607              1.938              3.210
 Vibration     5          0.614              1.915              2.827
 Vibration     6          0.619              1.900              2.637
 Vibration     7          0.636              1.847              2.180
 Vibration     8          0.639              1.835              2.102
 Vibration     9          0.661              1.768              1.754
 Vibration    10          0.696              1.664              1.388
 Vibration    11          0.758              1.491              0.999
 Vibration    12          0.765              1.472              0.966
 Vibration    13          0.786              1.418              0.879
 Vibration    14          0.803              1.375              0.816
 Vibration    15          0.908              1.133              0.538
 Vibration    16          0.945              1.059              0.472
 Vibration    17          0.968              1.012              0.434

                           ! Non-Optimized Parameters !
 Normal termination of Gaussian 16 at Sun Jun  4 12:52:09 2023.
