 Gaussian 16, Revision A.03,
 Gaussian 16:  ES64L-G16RevA.03 25-Dec-2016

 ----------------------------
 # opt freq 6-31+g(d,p) m062x
 ----------------------------

 ----
 test
 ----
 Symbolic Z-matrix:
 Charge =  0 Multiplicity = 1

 SCF Done:  E(RM062X) =  -583.492213953     A.U. after   14 cycles
 SCF Done:  E(RM062X) =  -583.484754232     A.U. after   15 cycles
 SCF Done:  E(RM062X) =  -583.491115589     A.U. after   12 cycles
 SCF Done:  E(RM062X) =  -583.492217247     A.U. after    7 cycles
 SCF Done:  E(RM062X) =  -583.491846258     A.U. after   12 cycles
 SCF Done:  E(RM062X) =  -583.492207727     A.U. after   12 cycles
 SCF Done:  E(RM062X) =  -583.492221771     A.U. after    7 cycles
 SCF Done:  E(RM062X) =  -583.492193004     A.U. after   11 cycles
 SCF Done:  E(RM062X) =  -583.492224754     A.U. after   12 cycles
 SCF Done:  E(RM062X) =  -583.492239311     A.U. after   11 cycles
 SCF Done:  E(RM062X) =  -583.492261107     A.U. after   10 cycles
 SCF Done:  E(RM062X) =  -583.492260742     A.U. after    9 cycles
 SCF Done:  E(RM062X) =  -583.492260386     A.U. after   10 cycles
 SCF Done:  E(RM062X) =  -583.492261527     A.U. after   10 cycles
 SCF Done:  E(RM062X) =  -583.492261748     A.U. after    9 cycles
 SCF Done:  E(RM062X) =  -583.492261777     A.U. after    9 cycles
 SCF Done:  E(RM062X) =  -583.492261839     A.U. after    8 cycles
 SCF Done:  E(RM062X) =  -583.492261992     A.U. after    9 cycles
 SCF Done:  E(RM062X) =  -583.492262009     A.U. after    9 cycles
 Optimization completed.
    -- Stationary point found.
 Normal termination of Gaussian 16 at Mon Jun  5 07:38:15 2023.

 ----------------------------------------------------------------------
 #N Geom=AllCheck Guess=TCheck SCRF=Check GenChk RM062X/6-31+G(d,p) Fre
 q
 ----------------------------------------------------------------------

 Structure from the checkpoint file:  "/scratch/gongke2021/RC/Gau-20966.chk"
 ----
 test
 ----
 Charge =  0 Multiplicity = 1

                         Standard orientation:
 ---------------------------------------------------------------------
 Center     Atomic      Atomic             Coordinates (Angstroms)
 Number     Number       Type             X           Y           Z
 ---------------------------------------------------------------------
      1          7           0        1.044732   -1.089026    0.009145
      2          7           0        0.878634    0.219902   -0.004969
      3          6           0        2.122110    0.701839    0.038112
      4          6           0        3.006885   -0.384722    0.076031
      5          7           0        2.289474   -1.508449    0.055598
      6          1           0        2.307303    1.764912    0.038045
      7          1           0        4.084517   -0.410166    0.115175
      8          1           0        0.248093   -1.739638   -0.025937
      9          6           0       -0.915349    2.300445   -0.053167
     10          8           0        0.010485    2.997279   -0.095761
     11          8           0       -1.893715    1.667342   -0.009825
     12          1           0       -2.041482   -2.204600   -0.048793
     13          8           0       -1.226062   -2.738958   -0.111931
     14          1           0       -1.356558   -3.380105   -0.816433
     15          1           0       -2.884959   -0.069704    0.022507
     16          8           0       -3.298837   -0.940083    0.099213
     17          1           0       -3.863630   -0.907695    0.877590
 ---------------------------------------------------------------------

 SCF Done:  E(RM062X) =  -583.492262009     A.U. after    1 cycles

 The electronic state is 1-A.
 Alpha  occ. eigenvalues --  -19.74104 -19.73891 -19.67487 -19.65203 -14.86017
 Alpha  occ. eigenvalues --  -14.80221 -14.79695 -10.76383 -10.57490 -10.57232
 Alpha  occ. eigenvalues --   -1.30232  -1.25230  -1.22388  -1.16120  -1.13518
 Alpha  occ. eigenvalues --   -0.99514  -0.91791  -0.71034  -0.70746  -0.67898
 Alpha  occ. eigenvalues --   -0.63846  -0.62950  -0.62203  -0.61228  -0.61150
 Alpha  occ. eigenvalues --   -0.60118  -0.54818  -0.52813  -0.51056  -0.50277
 Alpha  occ. eigenvalues --   -0.46503  -0.45425  -0.45347  -0.42321  -0.40598
 Alpha  occ. eigenvalues --   -0.39462  -0.36719  -0.34779  -0.32374
 Alpha virt. eigenvalues --    0.00219   0.03354   0.03636   0.03711   0.04277
 Alpha virt. eigenvalues --    0.05370   0.05876   0.06978   0.07123   0.07797
 Alpha virt. eigenvalues --    0.07870   0.08914   0.09294   0.09916   0.10964

 Mulliken charges:
               1
     1  N   -0.185153
     2  N   -0.225672
     3  C   -0.048405
     4  C   -0.273138
     5  N   -0.138189
     6  H    0.182152
     7  H    0.173569
     8  H    0.457519
     9  C    0.828186
    10  O   -0.336691
    11  O   -0.459426
    12  H    0.471108
    13  O   -0.835351
    14  H    0.383297
    15  H    0.439385
    16  O   -0.822607
    17  H    0.389416
 Sum of Mulliken charges =  -0.00000

 Dipole moment (field-independent basis, Debye):
    X=             -2.5246    Y=              1.1969    Z=              0.1256  Tot=              2.7968
 Quadrupole moment (field-independent basis, Debye-Ang):
   XX=            -49.6196   YY=            -58.2410   ZZ=            -57.4580
   XY=              4.9925   XZ=             -3.8221   YZ=              3.7569

  Exact polarizability:  89.988   6.797  80.886  -0.292   0.333  48.398
 Approx polarizability: 106.894  12.965  98.164  -0.605   0.205  58.729

                      1                      2                      3
                      A                      A                      A
 Frequencies --     12.8953                26.0904                39.8223
 Red. masses --      5.0601                11.1627                 6.9533
 Frc consts  --      0.0005                 0.0045                 0.0065
 IR Inten    --      1.4331                 0.0191                 1.4710

                      4                      5                      6
                      A                      A                      A
 Frequencies --     56.4317                89.5143                95.8464
 Red. masses --      7.5649                 6.3028                 3.8346
 Frc consts  --      0.0142                 0.0298                 0.0208
 IR Inten    --      0.0070                 4.0339                 5.9573

                      7                      8                      9
                      A                      A                      A
 Frequencies --    112.8403               141.4672               154.8697
 Red. masses --      8.9042                 5.5310                 3.6402
 Frc consts  --      0.0668                 0.0652                 0.0514
 IR Inten    --      0.7810                 5.3589                23.5669

                     10                     11                     12
                      A                      A                      A
 Frequencies --    161.0130               182.8001               243.2408
 Red. masses --      1.3715                 6.0350                 1.7765
 Frc consts  --      0.0209                 0.1188                 0.0619
 IR Inten    --     64.4522                16.9712                63.1224

                     13                     14                     15
                      A                      A                      A
 Frequencies --    252.4946               275.1993               402.0232
 Red. masses --      1.7895                 1.2074                 1.0738
 Frc consts  --      0.0672                 0.0539                 0.1023
 IR Inten    --    106.3568                29.4036               173.3575

                     16                     17                     18
                      A                      A                      A
 Frequencies --    492.8800               643.6548               670.1023
 Red. masses --      1.1282                12.8286                12.2059
 Frc consts  --      0.1615                 3.1314                 3.2293
 IR Inten    --    116.6476               104.9340                32.7219

                     19                     20                     21
                      A                      A                      A
 Frequencies --    686.3650               703.9660               796.0422
 Red. masses --      3.7602                12.6049                 1.0516
 Frc consts  --      1.0437                 3.6804                 0.3926
 IR Inten    --      0.6897                 0.6868               168.7189

                     22                     23                     24
                      A                      A                      A
 Frequencies --    849.8387               909.3394               943.6227
 Red. masses --      1.2005                 1.3657                 1.0602
 Frc consts  --      0.5108                 0.6653                 0.5562
 IR Inten    --     31.5069                 0.1194               128.9274

                     25                     26                     27
                      A                      A                      A
 Frequencies --    976.4733              1002.9747              1102.0163
 Red. masses --      6.6089                 3.5229                 1.6368
 Frc consts  --      3.7128                 2.0880                 1.1712
 IR Inten    --     32.5531                34.6573                 0.3369

                     28                     29                     30
                      A                      A                      A
 Frequencies --   1174.2115              1236.7446              1332.8222
 Red. masses --      1.4410                 6.9920                 8.4397
 Frc consts  --      1.1706                 6.3011                 8.8333
 IR Inten    --     36.8946                 0.1078                 0.7130

                     31                     32                     33
                      A                      A                      A
 Frequencies --   1334.6587              1413.5404              1480.0270
 Red. masses --      2.6231                15.9651                 3.5526
 Frc consts  --      2.7530                18.7948                 4.5849
 IR Inten    --     25.3832                 3.9801                11.1548

                     34                     35                     36
                      A                      A                      A
 Frequencies --   1489.2774              1618.8902              1625.3357
 Red. masses --      3.1268                 1.5116                 1.1430
 Frc consts  --      4.0860                 2.3341                 1.7791
 IR Inten    --      3.8065                36.1447                99.4406

                     37                     38                     39
                      A                      A                      A
 Frequencies --   1646.6779              2463.3641              3306.6940
 Red. masses --      1.1108                12.8156                 1.0932
 Frc consts  --      1.7746                45.8190                 7.0429
 IR Inten    --     35.9060               748.7239                 1.3695

                     40                     41                     42
                      A                      A                      A
 Frequencies --   3321.2037              3329.7180              3632.5858
 Red. masses --      1.0999                 1.1044                 1.0599
 Frc consts  --      7.1482                 7.2142                 8.2404
 IR Inten    --    197.0235              1063.4167               600.0430

                     43                     44                     45
                      A                      A                      A
 Frequencies --   3855.5302              3963.4540              3977.3908
 Red. masses --      1.0465                 1.0703                 1.0809
 Frc consts  --      9.1656                 9.9063                10.0746
 IR Inten    --    182.5388               116.7502               237.4079

 - Thermochemistry -
 -------------------
 Temperature   298.150 Kelvin.  Pressure   1.00000 Atm.
 Atom     1 has atomic number  7 and mass  14.00307

 Molecular mass:   149.04366 amu.
 Principal axes and moments of inertia in atomic units:
                           1         2         3
     Eigenvalues --  1664.601252082.785333732.21929
           X            0.99179   0.12781  -0.00281
           Y           -0.12780   0.99179   0.00446
           Z            0.00336  -0.00406   0.99999
 This molecule is an asymmetric top.
 Rotational symmetry number  1.
 Warning -- assumption of classical behavior for rotation
           may cause significant error
 Rotational temperatures (Kelvin)      0.05203     0.04159     0.02321
 Rotational constants (GHZ):           1.08419     0.86650     0.48356
 Zero-point vibrational energy     324343.2 (Joules/Mol)
                                   77.51989 (Kcal/Mol)
 Warning -- explicit consideration of  16 degrees of freedom as
           vibrations may cause significant error
 Vibrational temperatures:     18.55    37.54    57.30    81.19   128.79
          (Kelvin)            137.90   162.35   203.54   222.82   231.66
                              263.01   349.97   363.28   395.95   578.42
                              709.14   926.08   964.13   987.53  1012.85
                             1145.33  1222.73  1308.34  1357.66  1404.93
                             1443.06  1585.56  1689.43  1779.40  1917.63
                             1920.28  2033.77  2129.43  2142.74  2329.22
                             2338.50  2369.20  3544.23  4757.60  4778.47
                             4790.72  5226.48  5547.25  5702.53  5722.58

 Zero-point correction=                           0.123536 (Hartree/Particle)
 Thermal correction to Energy=                    0.137444
 Thermal correction to Enthalpy=                  0.138388
 Thermal correction to Gibbs Free Energy=         0.078958
 Sum of electronic and zero-point Energies=           -583.368726
 Sum of electronic and thermal Energies=              -583.354818
 Sum of electronic and thermal Enthalpies=            -583.353874
 Sum of electronic and thermal Free Energies=         -583.413304

                     E (Thermal)             CV                S
                      KCal/Mol        Cal/Mol-Kelvin    Cal/Mol-Kelvin
 Total                   86.247             43.075            125.080
 Electronic               0.000              0.000              0.000
 Translational            0.889              2.981             40.908
 Rotational               0.889              2.981             30.937
 Vibrational             84.470             37.114             53.235
 Vibration     1          0.593              1.987              7.506
 Vibration     2          0.593              1.985              6.106
 Vibration     3          0.594              1.981              5.268
 Vibration     4          0.596              1.975              4.578
 Vibration     5          0.602              1.957              3.671
 Vibration     6          0.603              1.952              3.537
 Vibration     7          0.607              1.939              3.219
 Vibration     8          0.615              1.912              2.784
 Vibration     9          0.620              1.897              2.612
 Vibration    10          0.622              1.890              2.538
 Vibration    11          0.630              1.863              2.300
 Vibration    12          0.659              1.774              1.779
 Vibration    13          0.664              1.759              1.713
 Vibration    14          0.677              1.719              1.563
 Vibration    15          0.768              1.466              0.955
 Vibration    16          0.849              1.266              0.676

                           ! Non-Optimized Parameters !
 Normal termination of Gaussian 16 at Mon Jun  5 07:39:23 2023.
