 Gaussian 16, Revision A.03,
 Gaussian 16:  ES64L-G16RevA.03 25-Dec-2016

 ----------------------------------------------------------------------
 # opt=(calcfc,ts,noeigentest) freq 6-31+g(d,p) integral=grid=ultrafine
  m062x
 ----------------------------------------------------------------------

 ----
 test
 ----
 Symbolic Z-matrix:
 Charge =  0 Multiplicity = 1

 SCF Done:  E(RM062X) =  -430.534071249     A.U. after   16 cycles
 SCF Done:  E(RM062X) =  -430.566763656     A.U. after   14 cycles
 SCF Done:  E(RM062X) =  -430.600964570     A.U. after   14 cycles
 SCF Done:  E(RM062X) =  -430.613298157     A.U. after   14 cycles
 SCF Done:  E(RM062X) =  -430.622568693     A.U. after   14 cycles
 SCF Done:  E(RM062X) =  -430.619859693     A.U. after   14 cycles
 SCF Done:  E(RM062X) =  -430.621591985     A.U. after   14 cycles
 SCF Done:  E(RM062X) =  -430.623574694     A.U. after   13 cycles
 SCF Done:  E(RM062X) =  -430.623684342     A.U. after   12 cycles
 SCF Done:  E(RM062X) =  -430.622805555     A.U. after   14 cycles
 SCF Done:  E(RM062X) =  -430.623735426     A.U. after   12 cycles
 SCF Done:  E(RM062X) =  -430.622591992     A.U. after   13 cycles
 SCF Done:  E(RM062X) =  -430.623683715     A.U. after   13 cycles
 SCF Done:  E(RM062X) =  -430.621881897     A.U. after   13 cycles
 SCF Done:  E(RM062X) =  -430.623615900     A.U. after   12 cycles
 SCF Done:  E(RM062X) =  -430.623733526     A.U. after   12 cycles
 SCF Done:  E(RM062X) =  -430.623756633     A.U. after   11 cycles
 SCF Done:  E(RM062X) =  -430.623756672     A.U. after    9 cycles
 SCF Done:  E(RM062X) =  -430.623756939     A.U. after    9 cycles
 Optimization completed.
    -- Stationary point found.
 Normal termination of Gaussian 16 at Fri Jun  2 03:31:47 2023.

 ----------------------------------------------------------------------
 #N Geom=AllCheck Guess=TCheck SCRF=Check GenChk RM062X/6-31+G(d,p) Fre
 q
 ----------------------------------------------------------------------

 Structure from the checkpoint file:  "/scratch/gongke2021/TS/Gau-21823.chk"
 ----
 test
 ----
 Charge =  0 Multiplicity = 1

                         Standard orientation:
 ---------------------------------------------------------------------
 Center     Atomic      Atomic             Coordinates (Angstroms)
 Number     Number       Type             X           Y           Z
 ---------------------------------------------------------------------
      1          7           0        0.606797   -0.931555   -0.000465
      2          7           0        0.036092    0.254784   -0.000605
      3          6           0        0.987109    1.192425   -0.000032
      4          6           0        2.177873    0.469470    0.000347
      5          7           0        1.897912   -0.853441    0.000168
      6          1           0        0.759744    2.246417   -0.000106
      7          1           0        3.196479    0.823632    0.000716
      8          1           0       -0.396450   -1.582180    0.000060
      9          6           0       -1.538727    0.057693    0.000112
     10          8           0       -2.196236    1.052981    0.000094
     11          8           0       -1.691627   -1.189720    0.000292
 ---------------------------------------------------------------------

 SCF Done:  E(RM062X) =  -430.623756939     A.U. after    1 cycles

 The electronic state is 1-A.
 Alpha  occ. eigenvalues --  -19.67453 -19.66075 -14.90753 -14.90086 -14.85515
 Alpha  occ. eigenvalues --  -10.74201 -10.64896 -10.62778  -1.30719  -1.23754
 Alpha  occ. eigenvalues --   -1.16744  -1.06797  -0.97356  -0.78792  -0.77281
 Alpha  occ. eigenvalues --   -0.72434  -0.65780  -0.62707  -0.58113  -0.57427
 Alpha  occ. eigenvalues --   -0.55735  -0.54459  -0.54407  -0.43764  -0.41725
 Alpha  occ. eigenvalues --   -0.40528  -0.39607  -0.38971  -0.37453
 Alpha virt. eigenvalues --   -0.03434   0.00419   0.02407   0.02703   0.02717
 Alpha virt. eigenvalues --    0.03704   0.05658   0.05794   0.06503   0.08057
 Alpha virt. eigenvalues --    0.08713   0.09715   0.11140   0.11144   0.12327

 Mulliken charges:
               1
     1  N   -0.222160
     2  N   -0.069214
     3  C   -0.079146
     4  C   -0.188394
     5  N   -0.179183
     6  H    0.226600
     7  H    0.199723
     8  H    0.478802
     9  C    0.788618
    10  O   -0.458293
    11  O   -0.497352
 Sum of Mulliken charges =  -0.00000

 Dipole moment (field-independent basis, Debye):
    X=              4.2064    Y=              1.6698    Z=             -0.0002  Tot=              4.5257
 Quadrupole moment (field-independent basis, Debye-Ang):
   XX=            -52.9352   YY=            -44.5804   ZZ=            -45.3221
   XY=              6.4689   XZ=              0.0024   YZ=              0.0008

  Exact polarizability:  76.958  -1.121  64.094   0.005   0.001  33.769
 Approx polarizability:  89.259  -4.187  91.601   0.011   0.003  43.003

 ******    1 imaginary frequencies (negative Signs) ******

                      1                      2                      3
                      A                      A                      A
 Frequencies --  -1246.9921               132.6149               148.9233
 Red. masses --      1.1571                 7.9803                 8.5445
 Frc consts  --      1.0601                 0.0827                 0.1117
 IR Inten    --   1253.3730                 2.3347                 3.5965

                      4                      5                      6
                      A                      A                      A
 Frequencies --    249.8683               522.3728               607.6896
 Red. masses --      7.0818                 9.9420                 8.4904
 Frc consts  --      0.2605                 1.5984                 1.8473
 IR Inten    --     20.9006                44.3001               119.3812

                      7                      8                      9
                      A                      A                      A
 Frequencies --    645.4410               690.8399               761.4586
 Red. masses --      3.8191                 9.6207                12.2882
 Frc consts  --      0.9374                 2.7053                 4.1979
 IR Inten    --      0.0045                 0.2953                25.4274

                     10                     11                     12
                      A                      A                      A
 Frequencies --    785.3186               841.7777               916.1614
 Red. masses --     12.3725                 1.1975                 1.3694
 Frc consts  --      4.4957                 0.5000                 0.6772
 IR Inten    --    470.4738                51.8468                 0.3239

                     13                     14                     15
                      A                      A                      A
 Frequencies --    987.6968              1040.4450              1123.9288
 Red. masses --      6.3510                 1.7137                 2.8158
 Frc consts  --      3.6504                 1.0930                 2.0957
 IR Inten    --     44.7652                67.9152                30.3069

                     16                     17                     18
                      A                      A                      A
 Frequencies --   1148.7346              1184.2025              1253.1430
 Red. masses --      1.0527                 1.7002                 6.6480
 Frc consts  --      0.8184                 1.4048                 6.1510
 IR Inten    --     91.6876                63.4581               440.2239

                     19                     20                     21
                      A                      A                      A
 Frequencies --   1317.3196              1366.1632              1452.6964
 Red. masses --      9.0324                 4.7476                 6.4641
 Frc consts  --      9.2350                 5.2207                 8.0373
 IR Inten    --     88.1276                36.7899                38.6804

                     22                     23                     24
                      A                      A                      A
 Frequencies --   1507.3286              1538.1856              2026.2492
 Red. masses --      5.2485                 5.7977                10.8698
 Frc consts  --      7.0258                 8.0821                26.2941
 IR Inten    --     13.1110                 4.8095               536.3942

                     25                     26                     27
                      A                      A                      A
 Frequencies --   2211.7141              3319.5403              3336.3244
 Red. masses --      1.0740                 1.0949                 1.1069
 Frc consts  --      3.0953                 7.1089                 7.2594
 IR Inten    --    477.6674                 5.5400                 8.2780

 - Thermochemistry -
 -------------------
 Temperature   298.150 Kelvin.  Pressure   1.00000 Atm.
 Atom     1 has atomic number  7 and mass  14.00307

 Molecular mass:   113.02253 amu.
 Principal axes and moments of inertia in atomic units:
                           1         2         3
     Eigenvalues --   326.851361023.518811350.37008
           X            0.99967   0.02553   0.00001
           Y           -0.02553   0.99967   0.00000
           Z           -0.00001  -0.00000   1.00000
 This molecule is an asymmetric top.
 Rotational symmetry number  1.
 Rotational temperatures (Kelvin)      0.26499     0.08462     0.06414
 Rotational constants (GHZ):           5.52160     1.76327     1.33648
    1 imaginary frequencies ignored.
 Zero-point vibrational energy     186115.8 (Joules/Mol)
                                   44.48275 (Kcal/Mol)
 Warning -- explicit consideration of   5 degrees of freedom as
           vibrations may cause significant error
 Vibrational temperatures:    190.80   214.27   359.50   751.58   874.33
          (Kelvin)            928.65   993.96  1095.57  1129.90  1211.13
                             1318.15  1421.08  1496.97  1617.08  1652.77
                             1703.80  1802.99  1895.33  1965.60  2090.11
                             2168.71  2213.11  2915.32  3182.16  4776.08
                             4800.23

 Zero-point correction=                           0.070888 (Hartree/Particle)
 Thermal correction to Energy=                    0.076614
 Thermal correction to Enthalpy=                  0.077558
 Thermal correction to Gibbs Free Energy=         0.040516
 Sum of electronic and zero-point Energies=           -430.552869
 Sum of electronic and thermal Energies=              -430.547143
 Sum of electronic and thermal Enthalpies=            -430.546199
 Sum of electronic and thermal Free Energies=         -430.583241

                     E (Thermal)             CV                S
                      KCal/Mol        Cal/Mol-Kelvin    Cal/Mol-Kelvin
 Total                   48.076             20.120             77.962
 Electronic               0.000              0.000              0.000
 Translational            0.889              2.981             40.083
 Rotational               0.889              2.981             27.604
 Vibrational             46.298             14.158             10.275
 Vibration     1          0.613              1.921              2.908
 Vibration     2          0.618              1.904              2.686
 Vibration     3          0.663              1.763              1.732
 Vibration     4          0.877              1.200              0.604
 Vibration     5          0.966              1.016              0.437

 Optimization completed.
    -- Stationary point found.
 Normal termination of Gaussian 16 at Fri Jun  2 03:33:04 2023.
