 Gaussian 16, Revision C.01,
 Gaussian 16:  ES64L-G16RevC.01  3-Jul-2019

 ----------------------------
 # opt freq 6-31+g(d,p) m062x
 ----------------------------

 ----
 test
 ----
 Symbolic Z-matrix:
 Charge =  0 Multiplicity = 1

 SCF Done:  E(RM062X) =  -507.081650286     A.U. after   14 cycles
 SCF Done:  E(RM062X) =  -507.081142540     A.U. after   15 cycles
 SCF Done:  E(RM062X) =  -507.081845304     A.U. after   12 cycles
 SCF Done:  E(RM062X) =  -507.080711932     A.U. after   14 cycles
 SCF Done:  E(RM062X) =  -507.081991080     A.U. after   12 cycles
 SCF Done:  E(RM062X) =  -507.082064407     A.U. after   11 cycles
 SCF Done:  E(RM062X) =  -507.082093345     A.U. after   11 cycles
 SCF Done:  E(RM062X) =  -507.082135922     A.U. after   11 cycles
 SCF Done:  E(RM062X) =  -507.082183968     A.U. after   11 cycles
 SCF Done:  E(RM062X) =  -507.082216939     A.U. after   11 cycles
 SCF Done:  E(RM062X) =  -507.082325194     A.U. after    8 cycles
 SCF Done:  E(RM062X) =  -507.082325298     A.U. after    8 cycles
 SCF Done:  E(RM062X) =  -507.082325428     A.U. after    9 cycles
 SCF Done:  E(RM062X) =  -507.082325548     A.U. after    9 cycles
 SCF Done:  E(RM062X) =  -507.082325643     A.U. after    8 cycles
 SCF Done:  E(RM062X) =  -507.082325782     A.U. after    8 cycles
 SCF Done:  E(RM062X) =  -507.082326056     A.U. after    9 cycles
 SCF Done:  E(RM062X) =  -507.082326179     A.U. after    9 cycles
 SCF Done:  E(RM062X) =  -507.082326240     A.U. after    8 cycles
 Optimization completed.
    -- Stationary point found.
 Normal termination of Gaussian 16 at Thu Dec  7 07:56:23 2023.

 ----------------------------------------------------------------------
 #N Geom=AllCheck Guess=TCheck SCRF=Check GenChk RM062X/6-31+G(d,p) Fre
 q
 ----------------------------------------------------------------------

 Structure from the checkpoint file:  "/home/gau/soft/scratch/Gau-76170.chk"
 ----
 test
 ----
 Charge =  0 Multiplicity = 1

                         Standard orientation:
 ---------------------------------------------------------------------
 Center     Atomic      Atomic             Coordinates (Angstroms)
 Number     Number       Type             X           Y           Z
 ---------------------------------------------------------------------
      1          7           0       -1.250461    0.777269    0.000250
      2          7           0       -0.447963   -0.268638    0.008609
      3          6           0       -1.280515   -1.309862    0.008994
      4          6           0       -2.593085   -0.814336    0.001141
      5          7           0       -2.538375    0.517907   -0.004615
      6          1           0       -0.905617   -2.321859    0.014438
      7          1           0       -3.538291   -1.333875   -0.000799
      8          1           0       -0.856842    1.717741   -0.004161
      9          6           0        2.205238   -0.863857   -0.000461
     10          8           0        1.919119   -1.987758   -0.002627
     11          8           0        2.565799    0.245899    0.002505
     12          1           0        1.490754    1.971941   -0.050413
     13          8           0        0.805426    2.654238   -0.058589
     14          1           0        1.155016    3.409588    0.422870
 ---------------------------------------------------------------------

 SCF Done:  E(RM062X) =  -507.082326240     A.U. after    1 cycles

 The electronic state is 1-A.
 Alpha  occ. eigenvalues --  -19.73819 -19.73668 -19.66773 -14.87058 -14.80910
 Alpha  occ. eigenvalues --  -14.80485 -10.76109 -10.58169 -10.57911  -1.29960
 Alpha  occ. eigenvalues --   -1.24953  -1.23279  -1.15240  -1.00343  -0.92672
 Alpha  occ. eigenvalues --   -0.71958  -0.71426  -0.67257  -0.63983  -0.62791
 Alpha  occ. eigenvalues --   -0.61013  -0.60908  -0.60214  -0.55627  -0.52976
 Alpha  occ. eigenvalues --   -0.51695  -0.48540  -0.45155  -0.45141  -0.41754
 Alpha  occ. eigenvalues --   -0.40329  -0.37476  -0.35481  -0.33072
 Alpha virt. eigenvalues --    0.00422   0.03101   0.03221   0.03613   0.04377
 Alpha virt. eigenvalues --    0.05105   0.05804   0.06834   0.07195   0.07850
 Alpha virt. eigenvalues --    0.08117   0.08821   0.09125   0.10188   0.12203

 Mulliken charges:
               1
     1  N   -0.185949
     2  N   -0.245490
     3  C   -0.056032
     4  C   -0.271152
     5  N   -0.078192
     6  H    0.182516
     7  H    0.177133
     8  H    0.423931
     9  C    0.813594
    10  O   -0.343170
    11  O   -0.434300
    12  H    0.423264
    13  O   -0.799057
    14  H    0.392905
 Sum of Mulliken charges =  -0.00000

 Dipole moment (field-independent basis, Debye):
    X=              1.7934    Y=              0.2487    Z=              0.8833  Tot=              2.0145
 Quadrupole moment (field-independent basis, Debye-Ang):
   XX=            -51.1889   YY=            -44.8972   ZZ=            -52.8436
   XY=              7.7202   XZ=              1.0634   YZ=              3.4610

  Exact polarizability:      71.493       5.380      79.782       0.199       0.481      41.343
 Approx polarizability:      82.760       7.466     106.287       0.358       0.694      50.531

                      1                      2                      3
                      A                      A                      A
 Frequencies --     34.0296                51.1628                56.7132
 Red. masses --      5.6535                 4.6378                 5.8467
 Frc consts  --      0.0039                 0.0072                 0.0111
 IR Inten    --      5.4083                11.3568                 1.9000

                      4                      5                      6
                      A                      A                      A
 Frequencies --     75.7621               104.7101               115.7501
 Red. masses --      2.6740                 4.0011                 2.3334
 Frc consts  --      0.0090                 0.0258                 0.0184
 IR Inten    --     33.1634                22.6185                48.4071

                      7                      8                      9
                      A                      A                      A
 Frequencies --    142.8473               169.5857               196.6075
 Red. masses --      5.5410                 6.9744                 6.5679
 Frc consts  --      0.0666                 0.1182                 0.1496
 IR Inten    --     13.8341                 5.9396                 6.5491

                     10                     11                     12
                      A                      A                      A
 Frequencies --    308.4554               421.6951               648.6942
 Red. masses --      1.1448                 1.0928                12.6092
 Frc consts  --      0.0642                 0.1145                 3.1262
 IR Inten    --    107.2015               158.8980               100.9532

                     13                     14                     15
                      A                      A                      A
 Frequencies --    671.6388               685.5383               691.9310
 Red. masses --     11.9843                 3.8733                 8.5828
 Frc consts  --      3.1852                 1.0725                 2.4211
 IR Inten    --     33.7961                 1.7966                 0.0465

                     16                     17                     18
                      A                      A                      A
 Frequencies --    834.4035               863.4781               910.7057
 Red. masses --      1.2266                 1.0743                 1.3695
 Frc consts  --      0.5031                 0.4719                 0.6692
 IR Inten    --     16.1848               144.1970                 0.2378

                     19                     20                     21
                      A                      A                      A
 Frequencies --    974.4940              1004.4797              1099.2592
 Red. masses --      6.7057                 3.3443                 1.7029
 Frc consts  --      3.7519                 1.9881                 1.2124
 IR Inten    --     38.8118                24.1805                 0.1194

                     22                     23                     24
                      A                      A                      A
 Frequencies --   1171.3501              1240.3002              1322.5039
 Red. masses --      1.4356                 6.7768                 2.0130
 Frc consts  --      1.1605                 6.1423                 2.0744
 IR Inten    --     46.3979                 3.4002                43.0304

                     25                     26                     27
                      A                      A                      A
 Frequencies --   1335.7877              1408.3243              1470.0743
 Red. masses --      7.6692                15.9641                 2.9413
 Frc consts  --      8.0626                18.6552                 3.7451
 IR Inten    --      0.6288                 2.8691                15.0875

                     28                     29                     30
                      A                      A                      A
 Frequencies --   1479.7251              1589.3250              1618.9170
 Red. masses --      3.6186                 2.3306                 1.0938
 Frc consts  --      4.6682                 3.4686                 1.6890
 IR Inten    --      5.2228                 4.8387               115.0331

                     31                     32                     33
                      A                      A                      A
 Frequencies --   2457.6583              3307.1840              3324.0831
 Red. masses --     12.8040                 1.0940                 1.1049
 Frc consts  --     45.5657                 7.0497                 7.1932
 IR Inten    --    723.5767                 0.0833                 0.0533

                     34                     35                     36
                      A                      A                      A
 Frequencies --   3536.3259              3846.5617              3984.2758
 Red. masses --      1.0887                 1.0478                 1.0802
 Frc consts  --      8.0217                 9.1343                10.1026
 IR Inten    --    549.4239               139.9667               194.6009

 - Thermochemistry -
 -------------------
 Temperature   298.150 Kelvin.  Pressure   1.00000 Atm.
 Atom     1 has atomic number  7 and mass  14.00307

 Molecular mass:   131.03309 amu.
 Principal axes and moments of inertia in atomic units:
                           1         2         3
     Eigenvalues --   903.053151667.231332568.62601
           X            0.99840   0.05647   0.00098
           Y           -0.05647   0.99839   0.00519
           Z           -0.00069  -0.00524   0.99999
 This molecule is an asymmetric top.
 Rotational symmetry number  1.
 Warning -- assumption of classical behavior for rotation
           may cause significant error
 Rotational temperatures (Kelvin)      0.09591     0.05195     0.03372
 Rotational constants (GHZ):           1.99849     1.08248     0.70261
 Zero-point vibrational energy     258120.3 (Joules/Mol)
                                   61.69222 (Kcal/Mol)
 Warning -- explicit consideration of  11 degrees of freedom as
           vibrations may cause significant error
 Vibrational temperatures:     48.96    73.61    81.60   109.00   150.65
          (Kelvin)            166.54   205.53   244.00   282.87   443.80
                              606.73   933.33   966.34   986.34   995.53
                             1200.52  1242.35  1310.30  1402.08  1445.22
                             1581.59  1685.31  1784.52  1902.79  1921.90
                             2026.26  2115.11  2128.99  2286.68  2329.26
                             3536.02  4758.30  4782.61  5087.98  5534.34
                             5732.48

 Zero-point correction=                           0.098313 (Hartree/Particle)
 Thermal correction to Energy=                    0.109267
 Thermal correction to Enthalpy=                  0.110211
 Thermal correction to Gibbs Free Energy=         0.059078
 Sum of electronic and zero-point Energies=           -506.984013
 Sum of electronic and thermal Energies=              -506.973059
 Sum of electronic and thermal Enthalpies=            -506.972115
 Sum of electronic and thermal Free Energies=         -507.023248

                     E (Thermal)             CV                S
                      KCal/Mol        Cal/Mol-Kelvin    Cal/Mol-Kelvin
 Total                   68.566             33.713            107.618
 Electronic               0.000              0.000              0.000
 Translational            0.889              2.981             40.524
 Rotational               0.889              2.981             29.737
 Vibrational             66.789             27.752             37.356
 Vibration     1          0.594              1.983              5.579
 Vibration     2          0.595              1.977              4.772
 Vibration     3          0.596              1.975              4.568
 Vibration     4          0.599              1.965              3.998
 Vibration     5          0.605              1.945              3.365
 Vibration     6          0.608              1.936              3.170
 Vibration     7          0.616              1.910              2.765
 Vibration     8          0.625              1.880              2.440
 Vibration     9          0.636              1.845              2.165
 Vibration    10          0.698              1.658              1.371
 Vibration    11          0.784              1.423              0.886

                           ! Non-Optimized Parameters !
 Normal termination of Gaussian 16 at Thu Dec  7 07:56:55 2023.
