 Gaussian 16, Revision A.03,
 Gaussian 16:  ES64L-G16RevA.03 25-Dec-2016

 ----------------------------
 # opt freq 6-31+g(d,p) m062x
 ----------------------------

 ----
 test
 ----
 Symbolic Z-matrix:
 Charge =  0 Multiplicity = 1

 SCF Done:  E(RM062X) =  -430.605168712     A.U. after   14 cycles
 SCF Done:  E(RM062X) =  -430.629453739     A.U. after   13 cycles
 SCF Done:  E(RM062X) =  -430.638638247     A.U. after   14 cycles
 SCF Done:  E(RM062X) =  -430.441292692     A.U. after   15 cycles
 SCF Done:  E(RM062X) =  -430.643698895     A.U. after   14 cycles
 SCF Done:  E(RM062X) =  -430.648123454     A.U. after   12 cycles
 SCF Done:  E(RM062X) =  -430.651126943     A.U. after   13 cycles
 SCF Done:  E(RM062X) =  -430.651076954     A.U. after   13 cycles
 SCF Done:  E(RM062X) =  -430.652906457     A.U. after   12 cycles
 SCF Done:  E(RM062X) =  -430.653186530     A.U. after   12 cycles
 SCF Done:  E(RM062X) =  -430.653044382     A.U. after   13 cycles
 SCF Done:  E(RM062X) =  -430.653283532     A.U. after   11 cycles
 SCF Done:  E(RM062X) =  -430.653283428     A.U. after   10 cycles
 SCF Done:  E(RM062X) =  -430.653288795     A.U. after   10 cycles
 Optimization completed.
    -- Stationary point found.
 Normal termination of Gaussian 16 at Fri Jun  2 04:08:42 2023.

 ----------------------------------------------------------------------
 #N Geom=AllCheck Guess=TCheck SCRF=Check GenChk RM062X/6-31+G(d,p) Fre
 q
 ----------------------------------------------------------------------

 Structure from the checkpoint file:  "/scratch/gongke2021/PC/Gau-27982.chk"
 ----
 test
 ----
 Charge =  0 Multiplicity = 1

                         Standard orientation:
 ---------------------------------------------------------------------
 Center     Atomic      Atomic             Coordinates (Angstroms)
 Number     Number       Type             X           Y           Z
 ---------------------------------------------------------------------
      1          7           0       -0.701998   -1.084199    0.000580
      2          7           0       -0.041494    0.091387    0.000595
      3          6           0       -0.909517    1.135582    0.000024
      4          6           0       -2.137188    0.529685   -0.000327
      5          7           0       -1.959495   -0.828566   -0.000301
      6          1           0       -0.569401    2.158621   -0.000070
      7          1           0       -3.122729    0.966289   -0.000608
      8          1           0        1.238533   -1.766358   -0.000549
      9          6           0        1.390449    0.124877    0.000141
     10          8           0        1.981694    1.161960   -0.000079
     11          8           0        1.932312   -1.080682   -0.000411
 ---------------------------------------------------------------------

 SCF Done:  E(RM062X) =  -430.653288795     A.U. after    1 cycles

 The electronic state is 1-A.
 Alpha  occ. eigenvalues --  -19.73041 -19.67727 -14.89747 -14.87030 -14.82839
 Alpha  occ. eigenvalues --  -10.76343 -10.63495 -10.60909  -1.29985  -1.25110
 Alpha  occ. eigenvalues --   -1.19738  -1.05903  -0.94579  -0.81350  -0.75344
 Alpha  occ. eigenvalues --   -0.73785  -0.68946  -0.62098  -0.58543  -0.57562
 Alpha  occ. eigenvalues --   -0.55283  -0.55093  -0.51364  -0.45803  -0.43776
 Alpha  occ. eigenvalues --   -0.41688  -0.39795  -0.37609  -0.35779
 Alpha virt. eigenvalues --   -0.03619   0.00694   0.02410   0.03421   0.03435
 Alpha virt. eigenvalues --    0.04547   0.05141   0.05873   0.07225   0.07886
 Alpha virt. eigenvalues --    0.08420   0.09902   0.11875   0.11920   0.12876

 Mulliken charges:
               1
     1  N   -0.194794
     2  N   -0.124361
     3  C   -0.053415
     4  C   -0.222671
     5  N   -0.119282
     6  H    0.232138
     7  H    0.191582
     8  H    0.430457
     9  C    0.741104
    10  O   -0.418288
    11  O   -0.462470
 Sum of Mulliken charges =  -0.00000

 Dipole moment (field-independent basis, Debye):
    X=             -1.7437    Y=              1.0964    Z=             -0.0002  Tot=              2.0598
 Quadrupole moment (field-independent basis, Debye-Ang):
   XX=            -52.2246   YY=            -44.0888   ZZ=            -45.4064
   XY=             -9.3354   XZ=              0.0018   YZ=              0.0011

  Exact polarizability:  75.547   2.301  64.537   0.006  -0.001  34.282
 Approx polarizability:  89.467   6.375  89.103   0.012  -0.003  43.596

                      1                      2                      3
                      A                      A                      A
 Frequencies --    112.0121               157.1147               239.1638
 Red. masses --      7.0469                 7.9224                 6.4410
 Frc consts  --      0.0521                 0.1152                 0.2171
 IR Inten    --     15.5119                 2.5131                24.2366

                      4                      5                      6
                      A                      A                      A
 Frequencies --    451.0841               555.9124               603.8626
 Red. masses --      7.9155                 7.0485                 1.1315
 Frc consts  --      0.9490                 1.2834                 0.2431
 IR Inten    --      0.9725                 3.9011               122.5922

                      7                      8                      9
                      A                      A                      A
 Frequencies --    628.4911               713.2165               751.9462
 Red. masses --      3.8315                 7.9918                 8.0207
 Frc consts  --      0.8917                 2.3952                 2.6720
 IR Inten    --      5.1766                 2.5347                39.6950

                     10                     11                     12
                      A                      A                      A
 Frequencies --    764.3432               823.0094               915.2787
 Red. masses --      9.2695                 1.2272                 1.3539
 Frc consts  --      3.1907                 0.4897                 0.6683
 IR Inten    --     16.4038                56.8406                 0.6020

                     13                     14                     15
                      A                      A                      A
 Frequencies --    970.4450              1044.0439              1072.3973
 Red. masses --      5.1464                 6.2112                 1.3959
 Frc consts  --      2.8556                 3.9890                 0.9458
 IR Inten    --      1.2299                64.4161                52.8474

                     16                     17                     18
                      A                      A                      A
 Frequencies --   1147.5078              1236.6455              1260.1384
 Red. masses --      1.9587                 2.9884                 5.4734
 Frc consts  --      1.5196                 2.6927                 5.1209
 IR Inten    --      6.3510                 7.5282                76.4613

                     19                     20                     21
                      A                      A                      A
 Frequencies --   1328.7116              1380.2826              1433.5825
 Red. masses --      2.4838                 2.9243                 4.3351
 Frc consts  --      2.5836                 3.2825                 5.2492
 IR Inten    --     59.9219               302.2991               211.8799

                     22                     23                     24
                      A                      A                      A
 Frequencies --   1513.6995              1571.8853              1954.5999
 Red. masses --      6.3779                 5.1924                11.1907
 Frc consts  --      8.6101                 7.5589                25.1897
 IR Inten    --    280.7146                 2.4225               484.5577

                     25                     26                     27
                      A                      A                      A
 Frequencies --   3320.6289              3341.9446              3719.7266
 Red. masses --      1.0943                 1.1085                 1.0659
 Frc consts  --      7.1093                 7.2940                 8.6892
 IR Inten    --      6.4630                10.1630               163.7110

 - Thermochemistry -
 -------------------
 Temperature   298.150 Kelvin.  Pressure   1.00000 Atm.
 Atom     1 has atomic number  7 and mass  14.00307

 Molecular mass:   113.02253 amu.
 Principal axes and moments of inertia in atomic units:
                           1         2         3
     Eigenvalues --   335.830001010.727751346.55764
           X            0.99942  -0.03398   0.00000
           Y            0.03398   0.99942   0.00000
           Z           -0.00000  -0.00000   1.00000
 This molecule is an asymmetric top.
 Rotational symmetry number  1.
 Rotational temperatures (Kelvin)      0.25791     0.08569     0.06432
 Rotational constants (GHZ):           5.37397     1.78559     1.34026
 Zero-point vibrational energy     197453.7 (Joules/Mol)
                                   47.19256 (Kcal/Mol)
 Warning -- explicit consideration of   6 degrees of freedom as
           vibrations may cause significant error
 Vibrational temperatures:    161.16   226.05   344.10   649.01   799.83
          (Kelvin)            868.82   904.26  1026.16  1081.88  1099.72
                             1184.13  1316.88  1396.25  1502.15  1542.94
                             1651.01  1779.26  1813.06  1911.72  1985.92
                             2062.61  2177.88  2261.59  2812.23  4777.64
                             4808.31  5351.86

 Zero-point correction=                           0.075206 (Hartree/Particle)
 Thermal correction to Energy=                    0.081230
 Thermal correction to Enthalpy=                  0.082174
 Thermal correction to Gibbs Free Energy=         0.044615
 Sum of electronic and zero-point Energies=           -430.578083
 Sum of electronic and thermal Energies=              -430.572059
 Sum of electronic and thermal Enthalpies=            -430.571114
 Sum of electronic and thermal Free Energies=         -430.608674

                     E (Thermal)             CV                S
                      KCal/Mol        Cal/Mol-Kelvin    Cal/Mol-Kelvin
 Total                   50.973             21.524             79.050
 Electronic               0.000              0.000              0.000
 Translational            0.889              2.981             40.083
 Rotational               0.889              2.981             27.616
 Vibrational             49.195             15.562             11.351
 Vibration     1          0.607              1.940              3.234
 Vibration     2          0.621              1.895              2.584
 Vibration     3          0.657              1.781              1.809
 Vibration     4          0.810              1.358              0.793
 Vibration     5          0.911              1.127              0.532
 Vibration     6          0.962              1.024              0.443

 Optimization completed.
    -- Stationary point found.
 Normal termination of Gaussian 16 at Fri Jun  2 04:09:56 2023.
