 Gaussian 16, Revision A.03,
 Gaussian 16:  ES64L-G16RevA.03 25-Dec-2016

 ----------------------------
 # opt freq 6-31+g(d,p) m062x
 ----------------------------

 ----
 test
 ----
 Symbolic Z-matrix:
 Charge = -1 Multiplicity = 2

 SCF Done:  E(UM062X) =  -583.452276733     A.U. after   19 cycles
 SCF Done:  E(UM062X) =  -583.482951376     A.U. after   16 cycles
 SCF Done:  E(UM062X) =  -583.487258061     A.U. after   17 cycles
 SCF Done:  E(UM062X) =  -583.492142096     A.U. after   17 cycles
 SCF Done:  E(UM062X) =  -583.493751988     A.U. after   15 cycles
 SCF Done:  E(UM062X) =  -583.494750139     A.U. after   16 cycles
 SCF Done:  E(UM062X) =  -583.495905600     A.U. after   16 cycles
 SCF Done:  E(UM062X) =  -583.497364675     A.U. after   16 cycles
 SCF Done:  E(UM062X) =  -583.498953250     A.U. after   16 cycles
 SCF Done:  E(UM062X) =  -583.499781968     A.U. after   16 cycles
 SCF Done:  E(UM062X) =  -583.501475854     A.U. after   11 cycles
 SCF Done:  E(UM062X) =  -583.501476460     A.U. after   11 cycles
 SCF Done:  E(UM062X) =  -583.501477013     A.U. after   11 cycles
 SCF Done:  E(UM062X) =  -583.501477347     A.U. after   10 cycles
 SCF Done:  E(UM062X) =  -583.501477578     A.U. after    9 cycles
 SCF Done:  E(UM062X) =  -583.501477792     A.U. after   10 cycles
 SCF Done:  E(UM062X) =  -583.501478020     A.U. after   10 cycles
 SCF Done:  E(UM062X) =  -583.501478183     A.U. after   10 cycles
 SCF Done:  E(UM062X) =  -583.501478270     A.U. after    9 cycles
 Optimization completed.
    -- Stationary point found.
 Normal termination of Gaussian 16 at Tue Jun  6 00:58:11 2023.

 ----------------------------------------------------------------------
 #N Geom=AllCheck Guess=TCheck SCRF=Check GenChk UM062X/6-31+G(d,p) Fre
 q
 ----------------------------------------------------------------------

 Structure from the checkpoint file:  "/scratch/gongke2021/PC/Gau-11760.chk"
 ----
 test
 ----
 Charge = -1 Multiplicity = 2

                         Standard orientation:
 ---------------------------------------------------------------------
 Center     Atomic      Atomic             Coordinates (Angstroms)
 Number     Number       Type             X           Y           Z
 ---------------------------------------------------------------------
      1          7           0       -0.088401   -0.952194   -0.122937
      2          7           0       -0.830216    0.244031   -0.056383
      3          6           0       -2.184229   -0.062249    0.059002
      4          6           0       -2.211486   -1.442360    0.035397
      5          7           0       -0.980109   -1.963536   -0.075435
      6          1           0       -2.927891    0.711393    0.130658
      7          1           0       -3.078122   -2.087427    0.094863
      8          1           0        1.332401   -0.867271    1.227635
      9          6           0       -0.286950    1.491913   -0.095096
     10          8           0       -0.946613    2.514928    0.064150
     11          8           0        1.059610    1.537755   -0.280895
     12          1           0        2.854211   -0.858697   -0.385309
     13          8           0        2.168716   -0.539178    1.625396
     14          1           0        2.076208    0.419959    1.556526
     15          1           0        1.415132    0.734511   -0.714870
     16          8           0        2.484566   -0.779527   -1.278642
     17          1           0        1.584907   -1.146221   -1.162106
 ---------------------------------------------------------------------

 SCF Done:  E(UM062X) =  -583.501478270     A.U. after    1 cycles

 The electronic state is 2-A.
 Alpha  occ. eigenvalues --  -19.54229 -19.51213 -19.51153 -19.47702 -14.69978
 Alpha  occ. eigenvalues --  -14.65865 -14.62944 -10.55703 -10.43551 -10.43408
 Alpha  occ. eigenvalues --   -1.09174  -1.02685  -1.00259  -0.99064  -0.98708
 Alpha  occ. eigenvalues --   -0.86466  -0.74927  -0.64248  -0.55462  -0.54204
 Alpha  occ. eigenvalues --   -0.50484  -0.46623  -0.46190  -0.43163  -0.39767
 Alpha  occ. eigenvalues --   -0.39246  -0.36460  -0.35870  -0.35066  -0.34262
 Alpha  occ. eigenvalues --   -0.32413  -0.27294  -0.26534  -0.25646  -0.25385
 Alpha  occ. eigenvalues --   -0.23176  -0.22251  -0.19909  -0.18955  -0.01861
 Alpha virt. eigenvalues --    0.13044   0.14766   0.15827   0.16516   0.17508
 Alpha virt. eigenvalues --    0.18196   0.18575   0.20232   0.22285   0.22762
 Alpha virt. eigenvalues --    0.23069   0.23742   0.25057   0.25668   0.27361

  Beta  occ. eigenvalues --  -19.54197 -19.51192 -19.51145 -19.47459 -14.69916
  Beta  occ. eigenvalues --  -14.65362 -14.62649 -10.55607 -10.43524 -10.43290
  Beta  occ. eigenvalues --   -1.08754  -1.01859  -1.00167  -0.99004  -0.98198
  Beta  occ. eigenvalues --   -0.85560  -0.73983  -0.63153  -0.55063  -0.53834
  Beta  occ. eigenvalues --   -0.49816  -0.46502  -0.46081  -0.41741  -0.39166
  Beta  occ. eigenvalues --   -0.38970  -0.35860  -0.35275  -0.34270  -0.34085
  Beta  occ. eigenvalues --   -0.31896  -0.27174  -0.25884  -0.24697  -0.24575
  Beta  occ. eigenvalues --   -0.22475  -0.19561  -0.19093  -0.15655
  Beta virt. eigenvalues --    0.12699   0.13053   0.14239   0.15054   0.16214
  Beta virt. eigenvalues --    0.17357   0.17754   0.18877   0.19479   0.20919
  Beta virt. eigenvalues --    0.22120   0.23523   0.24341   0.24895   0.25917

 Mulliken charges and spin densities:
               1          2
     1  N   -0.614605   0.316513
     2  N   -0.046821  -0.021522
     3  C   -0.178275   0.361496
     4  C   -0.212539  -0.140801
     5  N   -0.347488   0.228543
     6  H    0.177531  -0.015734
     7  H    0.125885   0.003879
     8  H    0.473272   0.007810
     9  C    0.678398   0.123016
    10  O   -0.567217   0.117605
    11  O   -0.604012   0.009782
    12  H    0.418549   0.000263
    13  O   -0.822403   0.001841
    14  H    0.403159   0.000702
    15  H    0.431598   0.001489
    16  O   -0.762966   0.001888
    17  H    0.447933   0.003231
 Sum of Mulliken charges =  -1.00000   1.00000

 Dipole moment (field-independent basis, Debye):
    X=             -1.3474    Y=             -0.5172    Z=              0.2598  Tot=              1.4665
 Quadrupole moment (field-independent basis, Debye-Ang):
   XX=            -75.4241   YY=            -87.9296   ZZ=            -71.1185
   XY=              5.3469   XZ=              1.3122   YZ=              0.7425

  Exact polarizability: 106.732   2.905 114.287  -2.160   1.417  64.263
 Approx polarizability: 115.290  -1.779 135.531  -2.949   2.666  74.025

                      1                      2                      3
                      A                      A                      A
 Frequencies --     49.8310                71.4515                98.0888
 Red. masses --      7.2880                 6.6105                 7.8769
 Frc consts  --      0.0107                 0.0199                 0.0447
 IR Inten    --      1.0977                 2.2301                 6.5980

                      4                      5                      6
                      A                      A                      A
 Frequencies --    131.2735               145.6925               160.7413
 Red. masses --      7.3230                 7.8428                 8.1610
 Frc consts  --      0.0744                 0.0981                 0.1242
 IR Inten    --      2.9000                 7.6807                 3.2283

                      7                      8                      9
                      A                      A                      A
 Frequencies --    169.4703               209.9916               248.1772
 Red. masses --      6.0073                 6.4621                 6.8500
 Frc consts  --      0.1017                 0.1679                 0.2486
 IR Inten    --     13.0889                12.3776                12.0578

                     10                     11                     12
                      A                      A                      A
 Frequencies --    374.8430               381.6008               428.8729
 Red. masses --      1.0483                 1.0659                 1.0559
 Frc consts  --      0.0868                 0.0914                 0.1144
 IR Inten    --     39.6864                93.1982                81.8107

                     13                     14                     15
                      A                      A                      A
 Frequencies --    447.3936               471.1828               540.6439
 Red. masses --      6.3835                 8.8904                 1.5062
 Frc consts  --      0.7528                 1.1629                 0.2594
 IR Inten    --      4.6331                29.2475                63.5833

                     16                     17                     18
                      A                      A                      A
 Frequencies --    553.5100               560.2216               625.3956
 Red. masses --      1.8440                 1.4028                 5.2868
 Frc consts  --      0.3329                 0.2594                 1.2183
 IR Inten    --     21.1663                73.5791                 7.4262

                     19                     20                     21
                      A                      A                      A
 Frequencies --    662.0134               715.5776               732.7375
 Red. masses --      5.5697                 1.6133                 1.0980
 Frc consts  --      1.4382                 0.4867                 0.3473
 IR Inten    --     44.9712               227.7639               188.3515

                     22                     23                     24
                      A                      A                      A
 Frequencies --    754.8358               867.3076               884.3751
 Red. masses --      2.7440                 1.2475                 1.0789
 Frc consts  --      0.9212                 0.5529                 0.4972
 IR Inten    --    102.0883                11.6482                69.1950

                     25                     26                     27
                      A                      A                      A
 Frequencies --    918.0474               945.9287              1054.1380
 Red. masses --      5.1524                 4.5441                 1.6486
 Frc consts  --      2.5585                 2.3956                 1.0794
 IR Inten    --     10.6087                10.8559                30.8525

                     28                     29                     30
                      A                      A                      A
 Frequencies --   1106.8526              1148.6994              1213.9909
 Red. masses --      3.5924                 3.9111                 3.2165
 Frc consts  --      2.5931                 3.0406                 2.7930
 IR Inten    --    110.1901               142.1435                 4.4999

                     31                     32                     33
                      A                      A                      A
 Frequencies --   1272.9254              1310.4000              1410.3780
 Red. masses --      1.5473                 2.8219                 3.9265
 Frc consts  --      1.4772                 2.8550                 4.6018
 IR Inten    --     49.8082               198.6252                92.5715

                     34                     35                     36
                      A                      A                      A
 Frequencies --   1475.3304              1518.0133              1677.4295
 Red. masses --      3.9846                 9.0338                 1.0903
 Frc consts  --      5.1099                12.2651                 1.8075
 IR Inten    --     59.4245               163.1806               204.3824

                     37                     38                     39
                      A                      A                      A
 Frequencies --   1690.5626              1785.0627              3264.6975
 Red. masses --      1.0759                 9.4470                 1.0946
 Frc consts  --      1.8117                17.7358                 6.8737
 IR Inten    --    118.2734               733.9849                26.7178

                     40                     41                     42
                      A                      A                      A
 Frequencies --   3349.5237              3524.8197              3583.0144
 Red. masses --      1.0979                 1.0626                 1.0651
 Frc consts  --      7.2574                 7.7783                 8.0563
 IR Inten    --      3.3249               580.7057                75.6531

                     43                     44                     45
                      A                      A                      A
 Frequencies --   3654.4042              3825.6367              3888.9635
 Red. masses --      1.0620                 1.0680                 1.0666
 Frc consts  --      8.3564                 9.2090                 9.5042
 IR Inten    --    850.8506               180.7233                40.1329

 - Thermochemistry -
 -------------------
 Temperature   298.150 Kelvin.  Pressure   1.00000 Atm.
 Atom     1 has atomic number  7 and mass  14.00307

 Molecular mass:   149.04366 amu.
 Principal axes and moments of inertia in atomic units:
                           1         2         3
     Eigenvalues --  1275.669561641.466622372.59424
           X            0.99997   0.00714   0.00083
           Y           -0.00714   0.99997   0.00293
           Z           -0.00081  -0.00294   1.00000
 This molecule is an asymmetric top.
 Rotational symmetry number  1.
 Warning -- assumption of classical behavior for rotation
           may cause significant error
 Rotational temperatures (Kelvin)      0.06790     0.05277     0.03651
 Rotational constants (GHZ):           1.41474     1.09947     0.76066
 Zero-point vibrational energy     322417.8 (Joules/Mol)
                                   77.05970 (Kcal/Mol)
 Warning -- explicit consideration of  17 degrees of freedom as
           vibrations may cause significant error
 Vibrational temperatures:     71.70   102.80   141.13   188.87   209.62
          (Kelvin)            231.27   243.83   302.13   357.07   539.32
                              549.04   617.05   643.70   677.93   777.87
                              796.38   806.03   899.80   952.49  1029.56
                             1054.25  1086.04  1247.86  1272.42  1320.87
                             1360.98  1516.67  1592.51  1652.72  1746.66
                             1831.46  1885.37  2029.22  2122.67  2184.08
                             2413.45  2432.34  2568.31  4697.17  4819.22
                             5071.43  5155.16  5257.87  5504.24  5595.35

 Zero-point correction=                           0.122802 (Hartree/Particle)
 Thermal correction to Energy=                    0.134545
 Thermal correction to Enthalpy=                  0.135489
 Thermal correction to Gibbs Free Energy=         0.084317
 Sum of electronic and zero-point Energies=           -583.378676
 Sum of electronic and thermal Energies=              -583.366933
 Sum of electronic and thermal Enthalpies=            -583.365989
 Sum of electronic and thermal Free Energies=         -583.417162

                     E (Thermal)             CV                S
                      KCal/Mol        Cal/Mol-Kelvin    Cal/Mol-Kelvin
 Total                   84.428             41.437            107.701
 Electronic               0.000              0.000              1.377
 Translational            0.889              2.981             40.908
 Rotational               0.889              2.981             29.986
 Vibrational             82.651             35.476             35.430
 Vibration     1          0.595              1.978              4.824
 Vibration     2          0.598              1.968              4.113
 Vibration     3          0.604              1.951              3.492
 Vibration     4          0.612              1.922              2.927
 Vibration     5          0.617              1.907              2.728
 Vibration     6          0.622              1.890              2.541
 Vibration     7          0.625              1.880              2.441
 Vibration     8          0.642              1.826              2.044
 Vibration     9          0.662              1.766              1.743
 Vibration    10          0.746              1.524              1.060
 Vibration    11          0.751              1.509              1.033
 Vibration    12          0.790              1.407              0.862
 Vibration    13          0.807              1.367              0.804
 Vibration    14          0.828              1.314              0.734
 Vibration    15          0.896              1.160              0.564
 Vibration    16          0.909              1.132              0.537
 Vibration    17          0.916              1.117              0.523

                           ! Non-Optimized Parameters !
 Normal termination of Gaussian 16 at Tue Jun  6 01:00:27 2023.
