 Gaussian 16, Revision A.03,
 Gaussian 16:  ES64L-G16RevA.03 25-Dec-2016

 ----------------------------------------------------------------------
 # opt=(calcfc,ts,noeigentest) freq 6-31+g(d,p) integral=grid=ultrafine
  m062x
 ----------------------------------------------------------------------

 ----
 test
 ----
 Symbolic Z-matrix:
 Charge =  0 Multiplicity = 1

 SCF Done:  E(RM062X) =  -583.197682589     A.U. after   18 cycles
 SCF Done:  E(RM062X) =  -583.260500939     A.U. after   15 cycles
 SCF Done:  E(RM062X) =  -583.316796802     A.U. after   15 cycles
 SCF Done:  E(RM062X) =  -583.364112704     A.U. after   14 cycles
 SCF Done:  E(RM062X) =  -583.397946523     A.U. after   14 cycles
 SCF Done:  E(RM062X) =  -583.427842218     A.U. after   14 cycles
 SCF Done:  E(RM062X) =  -583.446218653     A.U. after   13 cycles
 SCF Done:  E(RM062X) =  -583.455687765     A.U. after   13 cycles
 SCF Done:  E(RM062X) =  -583.461817003     A.U. after   13 cycles
 SCF Done:  E(RM062X) =  -583.463735269     A.U. after   13 cycles
 SCF Done:  E(RM062X) =  -583.467599294     A.U. after    8 cycles
 SCF Done:  E(RM062X) =  -583.467002954     A.U. after   13 cycles
 SCF Done:  E(RM062X) =  -583.467523867     A.U. after   13 cycles
 SCF Done:  E(RM062X) =  -583.467577124     A.U. after   12 cycles
 SCF Done:  E(RM062X) =  -583.467594098     A.U. after   12 cycles
 SCF Done:  E(RM062X) =  -583.467598826     A.U. after   12 cycles
 SCF Done:  E(RM062X) =  -583.467599237     A.U. after   10 cycles
 SCF Done:  E(RM062X) =  -583.467599279     A.U. after    9 cycles
 SCF Done:  E(RM062X) =  -583.467599299     A.U. after    8 cycles
 Optimization completed.
    -- Stationary point found.
 Normal termination of Gaussian 16 at Mon Jun  5 07:57:40 2023.

 ----------------------------------------------------------------------
 #N Geom=AllCheck Guess=TCheck SCRF=Check GenChk RM062X/6-31+G(d,p) Fre
 q
 ----------------------------------------------------------------------

 Structure from the checkpoint file:  "/scratch/gongke2021/TS/Gau-29950.chk"
 ----
 test
 ----
 Charge =  0 Multiplicity = 1

                         Standard orientation:
 ---------------------------------------------------------------------
 Center     Atomic      Atomic             Coordinates (Angstroms)
 Number     Number       Type             X           Y           Z
 ---------------------------------------------------------------------
      1          7           0        0.543495   -0.954066   -0.103236
      2          7           0        0.930219    0.320083   -0.045931
      3          6           0        2.263006    0.384257    0.126693
      4          6           0        2.670762   -0.932261    0.164604
      5          7           0        1.579395   -1.723904    0.025090
      6          1           0        2.767190    1.334125    0.202549
      7          1           0        3.658086   -1.349054    0.282151
      8          1           0       -0.877420   -1.502683   -0.137920
      9          6           0       -0.032905    1.487507   -0.142296
     10          8           0        0.473992    2.556418    0.103650
     11          8           0       -1.177465    1.113297   -0.488467
     12          1           0       -2.604984   -0.970858    0.168039
     13          8           0       -1.855839   -1.885042   -0.084756
     14          1           0       -2.063580   -2.338898   -0.910376
     15          1           0       -2.382546    0.704628    0.067416
     16          8           0       -3.168310    0.060638    0.350417
     17          1           0       -3.452714    0.228449    1.255904
 ---------------------------------------------------------------------

 SCF Done:  E(RM062X) =  -583.467599299     A.U. after    1 cycles

 The electronic state is 1-A.
 Alpha  occ. eigenvalues --  -19.70551 -19.70413 -19.63358 -19.62512 -14.86850
 Alpha  occ. eigenvalues --  -14.85734 -14.81369 -10.71150 -10.61045 -10.59142
 Alpha  occ. eigenvalues --   -1.25413  -1.21660  -1.20185  -1.17740  -1.11965
 Alpha  occ. eigenvalues --   -1.02697  -0.92713  -0.76263  -0.73260  -0.70393
 Alpha  occ. eigenvalues --   -0.69332  -0.67305  -0.64261  -0.58572  -0.57992
 Alpha  occ. eigenvalues --   -0.54941  -0.53963  -0.53435  -0.51434  -0.51034
 Alpha  occ. eigenvalues --   -0.48512  -0.45169  -0.44003  -0.38967  -0.38116
 Alpha  occ. eigenvalues --   -0.37242  -0.36025  -0.35156  -0.34024
 Alpha virt. eigenvalues --   -0.00525   0.01432   0.02779   0.04295   0.04569
 Alpha virt. eigenvalues --    0.05374   0.05686   0.06055   0.07704   0.08502
 Alpha virt. eigenvalues --    0.09689   0.10246   0.10871   0.11904   0.12458

 Mulliken charges:
               1
     1  N   -0.227935
     2  N   -0.158785
     3  C   -0.025529
     4  C   -0.249772
     5  N   -0.164118
     6  H    0.228461
     7  H    0.183620
     8  H    0.524348
     9  C    0.781052
    10  O   -0.465458
    11  O   -0.740416
    12  H    0.563783
    13  O   -0.805845
    14  H    0.420943
    15  H    0.556387
    16  O   -0.848994
    17  H    0.428256
 Sum of Mulliken charges =  -0.00000

 Dipole moment (field-independent basis, Debye):
    X=             -1.5153    Y=             -3.1400    Z=              1.0297  Tot=              3.6354
 Quadrupole moment (field-independent basis, Debye-Ang):
   XX=            -42.1076   YY=            -71.0674   ZZ=            -55.7841
   XY=              5.3025   XZ=             -3.9076   YZ=              4.8526

  Exact polarizability:  97.228   0.358  87.399   3.135   2.648  49.060
 Approx polarizability: 107.829   5.071 107.596   5.574   4.342  62.417

 ******    1 imaginary frequencies (negative Signs) ******

                      1                      2                      3
                      A                      A                      A
 Frequencies --   -461.4475                36.6975                63.8728
 Red. masses --      1.4660                 5.4379                 7.0310
 Frc consts  --      0.1839                 0.0043                 0.0169
 IR Inten    --    594.5062                 1.6369                 7.8429

                      4                      5                      6
                      A                      A                      A
 Frequencies --     87.9446               111.7647               170.4507
 Red. masses --      6.2013                 6.9555                 7.0244
 Frc consts  --      0.0283                 0.0512                 0.1202
 IR Inten    --     10.5695                17.1187                 3.3708

                      7                      8                      9
                      A                      A                      A
 Frequencies --    226.7499               340.3106               374.7408
 Red. masses --      7.3155                 2.2369                 1.9773
 Frc consts  --      0.2216                 0.1526                 0.1636
 IR Inten    --      5.8935                53.9812               143.0498

                     10                     11                     12
                      A                      A                      A
 Frequencies --    401.9639               475.0412               498.8058
 Red. masses --      9.0751                 1.6850                 1.7544
 Frc consts  --      0.8639                 0.2240                 0.2572
 IR Inten    --     21.0600               161.6624               120.4587

                     13                     14                     15
                      A                      A                      A
 Frequencies --    592.9729               611.0325               648.9993
 Red. masses --      1.3074                 3.1458                 3.8993
 Frc consts  --      0.2708                 0.6920                 0.9677
 IR Inten    --     15.4743                47.0650                 7.0566

                     16                     17                     18
                      A                      A                      A
 Frequencies --    684.4359               716.0647               743.4968
 Red. masses --      2.0661                 3.3588                 1.6891
 Frc consts  --      0.5703                 1.0147                 0.5501
 IR Inten    --    213.1312                33.7208               169.3512

                     19                     20                     21
                      A                      A                      A
 Frequencies --    788.2392               799.6408               840.0311
 Red. masses --      8.1935                 7.4398                 1.2369
 Frc consts  --      2.9994                 2.8029                 0.5142
 IR Inten    --    440.4332               199.9621                47.3897

                     22                     23                     24
                      A                      A                      A
 Frequencies --    916.4344               978.3682              1040.4035
 Red. masses --      1.3692                 5.5382                 1.1071
 Frc consts  --      0.6775                 3.1234                 0.7061
 IR Inten    --      0.4519                10.3091               416.8108

                     25                     26                     27
                      A                      A                      A
 Frequencies --   1056.0177              1113.3770              1157.1219
 Red. masses --      1.5642                 2.2485                 1.4796
 Frc consts  --      1.0278                 1.6422                 1.1672
 IR Inten    --    135.4669               311.8978               167.6256

                     28                     29                     30
                      A                      A                      A
 Frequencies --   1188.5423              1267.2229              1344.9163
 Red. masses --      1.4513                 8.2056                 5.1650
 Frc consts  --      1.2079                 7.7636                 5.5044
 IR Inten    --     78.2566               351.1530               305.3081

                     31                     32                     33
                      A                      A                      A
 Frequencies --   1364.0064              1396.3772              1511.7970
 Red. masses --      8.0588                 8.0044                 5.4701
 Frc consts  --      8.8339                 9.1957                 7.3660
 IR Inten    --    227.6913               291.9777                26.5053

                     34                     35                     36
                      A                      A                      A
 Frequencies --   1545.3120              1561.3804              1594.4740
 Red. masses --      4.6972                 1.0827                 1.0721
 Frc consts  --      6.6088                 1.5552                 1.6059
 IR Inten    --      1.2702                98.2587               180.9039

                     37                     38                     39
                      A                      A                      A
 Frequencies --   1689.2047              1772.0180              1919.0297
 Red. masses --      1.0595                 1.0882                 7.0586
 Frc consts  --      1.7812                 2.0132                15.3156
 IR Inten    --    646.9078               370.7770               856.5479

                     40                     41                     42
                      A                      A                      A
 Frequencies --   2379.8176              2459.5730              3319.7609
 Red. masses --      1.0871                 1.0964                 1.0944
 Frc consts  --      3.6276                 3.9080                 7.1060
 IR Inten    --    986.5751              4945.3263                 4.5399

                     43                     44                     45
                      A                      A                      A
 Frequencies --   3340.2116              3913.3015              3927.0033
 Red. masses --      1.1071                 1.0654                 1.0660
 Frc consts  --      7.2773                 9.6125                 9.6853
 IR Inten    --      9.2909               152.1357               130.6227

 - Thermochemistry -
 -------------------
 Temperature   298.150 Kelvin.  Pressure   1.00000 Atm.
 Atom     1 has atomic number  7 and mass  14.00307

 Molecular mass:   149.04366 amu.
 Principal axes and moments of inertia in atomic units:
                           1         2         3
     Eigenvalues --  1064.523221785.755812781.82165
           X            0.99968   0.02521  -0.00275
           Y           -0.02518   0.99965   0.00839
           Z            0.00296  -0.00831   0.99996
 This molecule is an asymmetric top.
 Rotational symmetry number  1.
 Warning -- assumption of classical behavior for rotation
           may cause significant error
 Rotational temperatures (Kelvin)      0.08136     0.04850     0.03114
 Rotational constants (GHZ):           1.69535     1.01063     0.64876
    1 imaginary frequencies ignored.
 Zero-point vibrational energy     316824.5 (Joules/Mol)
                                   75.72288 (Kcal/Mol)
 Warning -- explicit consideration of  13 degrees of freedom as
           vibrations may cause significant error
 Vibrational temperatures:     52.80    91.90   126.53   160.80   245.24
          (Kelvin)            326.24   489.63   539.17   578.34   683.48
                              717.67   853.16   879.14   933.77   984.75
                             1030.26  1069.73  1134.10  1150.50  1208.62
                             1318.54  1407.65  1496.91  1519.37  1601.90
                             1664.84  1710.05  1823.25  1935.03  1962.50
                             2009.08  2175.14  2223.36  2246.48  2294.09
                             2430.39  2549.54  2761.06  3424.03  3538.78
                             4776.40  4805.82  5630.37  5650.08

 Zero-point correction=                           0.120672 (Hartree/Particle)
 Thermal correction to Energy=                    0.130530
 Thermal correction to Enthalpy=                  0.131474
 Thermal correction to Gibbs Free Energy=         0.083947
 Sum of electronic and zero-point Energies=           -583.346927
 Sum of electronic and thermal Energies=              -583.337070
 Sum of electronic and thermal Enthalpies=            -583.336125
 Sum of electronic and thermal Free Energies=         -583.383652

                     E (Thermal)             CV                S
                      KCal/Mol        Cal/Mol-Kelvin    Cal/Mol-Kelvin
 Total                   81.909             35.041            100.028
 Electronic               0.000              0.000              0.000
 Translational            0.889              2.981             40.908
 Rotational               0.889              2.981             30.048
 Vibrational             80.131             29.079             29.073
 Vibration     1          0.594              1.982              5.430
 Vibration     2          0.597              1.972              4.334
 Vibration     3          0.601              1.958              3.705
 Vibration     4          0.607              1.940              3.238
 Vibration     5          0.626              1.879              2.431
 Vibration     6          0.650              1.800              1.905
 Vibration     7          0.720              1.595              1.211
 Vibration     8          0.746              1.524              1.060
 Vibration     9          0.768              1.466              0.955
 Vibration    10          0.832              1.305              0.724
 Vibration    11          0.854              1.253              0.661
 Vibration    12          0.951              1.047              0.462
 Vibration    13          0.970              1.008              0.431

 Optimization completed.
    -- Stationary point found.
 Normal termination of Gaussian 16 at Mon Jun  5 07:58:58 2023.
