 Gaussian 16, Revision A.03,
 Gaussian 16:  ES64L-G16RevA.03 25-Dec-2016

 ----------------------------------------------------------------------
 # opt=(calcfc,ts,noeigentest) freq 6-31+g(d,p) integral=grid=ultrafine
  m062x
 ----------------------------------------------------------------------

 ----
 test
 ----
 Symbolic Z-matrix:
 Charge =  0 Multiplicity = 1

 SCF Done:  E(RM062X) =  -507.009473903     A.U. after   14 cycles
 SCF Done:  E(RM062X) =  -507.016398116     A.U. after   13 cycles
 SCF Done:  E(RM062X) =  -507.020199489     A.U. after   13 cycles
 SCF Done:  E(RM062X) =  -507.020970287     A.U. after   13 cycles
 SCF Done:  E(RM062X) =  -507.020983771     A.U. after   13 cycles
 SCF Done:  E(RM062X) =  -507.021467988     A.U. after   12 cycles
 SCF Done:  E(RM062X) =  -507.021598132     A.U. after   12 cycles
 SCF Done:  E(RM062X) =  -507.021635708     A.U. after   12 cycles
 SCF Done:  E(RM062X) =  -507.021651101     A.U. after   11 cycles
 SCF Done:  E(RM062X) =  -507.021655511     A.U. after   10 cycles
 SCF Done:  E(RM062X) =  -507.021659687     A.U. after   11 cycles
 SCF Done:  E(RM062X) =  -507.021662661     A.U. after   10 cycles
 SCF Done:  E(RM062X) =  -507.021664207     A.U. after   10 cycles
 SCF Done:  E(RM062X) =  -507.021664581     A.U. after    9 cycles
 SCF Done:  E(RM062X) =  -507.021664984     A.U. after    9 cycles
 SCF Done:  E(RM062X) =  -507.021664991     A.U. after    9 cycles
 Optimization completed.
    -- Stationary point found.
 Normal termination of Gaussian 16 at Mon Jul 10 23:43:12 2023.

 ----------------------------------------------------------------------
 #N Geom=AllCheck Guess=TCheck SCRF=Check GenChk RM062X/6-31+G(d,p) Fre
 q
 ----------------------------------------------------------------------

 Structure from the checkpoint file:  "/scratch/gongke2021/TS-H-cycle/Gau-15011.chk"
 ----
 test
 ----
 Charge =  0 Multiplicity = 1

                         Standard orientation:
 ---------------------------------------------------------------------
 Center     Atomic      Atomic             Coordinates (Angstroms)
 Number     Number       Type             X           Y           Z
 ---------------------------------------------------------------------
      1          7           0        0.249815   -0.923827   -0.029716
      2          7           0        0.507225    0.375841   -0.007854
      3          6           0        1.832383    0.591069    0.017826
      4          6           0        2.377644   -0.678797    0.010930
      5          7           0        1.367555   -1.585488   -0.018404
      6          1           0        2.242041    1.588185    0.036971
      7          1           0        3.410873   -0.987523    0.024194
      8          1           0       -1.436637   -0.975311   -0.108586
      9          6           0       -0.681587    1.322777   -0.005923
     10          8           0       -0.398550    2.496685    0.032630
     11          8           0       -1.737535    0.648756   -0.042531
     12          1           0       -2.042940   -2.410536    0.576459
     13          8           0       -2.264030   -1.709862   -0.056410
     14          1           0       -3.015219   -1.175429    0.256271
 ---------------------------------------------------------------------

 SCF Done:  E(RM062X) =  -507.021664991     A.U. after    1 cycles

 The electronic state is 1-A.
 Alpha  occ. eigenvalues --  -19.79553 -19.62463 -19.61328 -14.85862 -14.84790
 Alpha  occ. eigenvalues --  -14.80739 -10.69689 -10.60557 -10.58691  -1.29449
 Alpha  occ. eigenvalues --   -1.24807  -1.18847  -1.10951  -1.01835  -0.92079
 Alpha  occ. eigenvalues --   -0.75789  -0.74766  -0.72909  -0.71074  -0.65773
 Alpha  occ. eigenvalues --   -0.59094  -0.57893  -0.56190  -0.53664  -0.53109
 Alpha  occ. eigenvalues --   -0.50877  -0.49952  -0.44282  -0.38385  -0.37208
 Alpha  occ. eigenvalues --   -0.36040  -0.34927  -0.34347  -0.33252
 Alpha virt. eigenvalues --   -0.00871   0.00474   0.02592   0.04467   0.04971
 Alpha virt. eigenvalues --    0.05224   0.05817   0.06214   0.07965   0.09266
 Alpha virt. eigenvalues --    0.09679   0.10567   0.11591   0.11763   0.12793

 Mulliken charges:
               1
     1  N   -0.216195
     2  N   -0.219935
     3  C   -0.021132
     4  C   -0.255877
     5  N   -0.174821
     6  H    0.221373
     7  H    0.180294
     8  H    0.551194
     9  C    0.799352
    10  O   -0.498851
    11  O   -0.699095
    12  H    0.438802
    13  O   -0.568071
    14  H    0.462961
 Sum of Mulliken charges =  -0.00000

 Dipole moment (field-independent basis, Debye):
    X=             -1.4890    Y=             -5.3463    Z=              1.6535  Tot=              5.7909
 Quadrupole moment (field-independent basis, Debye-Ang):
   XX=            -35.8653   YY=            -58.9407   ZZ=            -52.2676
   XY=             16.6631   XZ=             -4.2340   YZ=             -4.0348

  Exact polarizability:  84.094   0.167  81.966  -0.021  -0.195  41.040
 Approx polarizability:  97.005   3.858 103.964   0.467   0.154  52.095

 ******    1 imaginary frequencies (negative Signs) ******

                      1                      2                      3
                      A                      A                      A
 Frequencies --  -1023.7380                82.3591               117.3788
 Red. masses --      1.0866                 5.7791                 6.7403
 Frc consts  --      0.6710                 0.0231                 0.0547
 IR Inten    --    291.7356                23.6761                 7.6577

                      4                      5                      6
                      A                      A                      A
 Frequencies --    153.9677               162.1133               241.0218
 Red. masses --      3.7879                 6.9685                 2.4048
 Frc consts  --      0.0529                 0.1079                 0.0823
 IR Inten    --     29.4960                 7.8045                47.7045

                      7                      8                      9
                      A                      A                      A
 Frequencies --    274.4697               375.0908               408.9330
 Red. masses --      1.6135                 4.1604                 6.8042
 Frc consts  --      0.0716                 0.3449                 0.6704
 IR Inten    --     32.9132                71.1077                54.7730

                     10                     11                     12
                      A                      A                      A
 Frequencies --    514.8904               564.1072               650.0099
 Red. masses --      1.2532                 9.5372                 3.9165
 Frc consts  --      0.1957                 1.7881                 0.9750
 IR Inten    --    150.2253                 2.1638                 0.8641

                     13                     14                     15
                      A                      A                      A
 Frequencies --    717.3401               785.3505               787.0288
 Red. masses --      9.8941                11.9787                10.5914
 Frc consts  --      2.9997                 4.3530                 3.8653
 IR Inten    --      0.2847               245.5549                36.9685

                     16                     17                     18
                      A                      A                      A
 Frequencies --    835.1057               910.5786               981.8357
 Red. masses --      1.2133                 1.3650                 5.2997
 Frc consts  --      0.4986                 0.6668                 3.0101
 IR Inten    --     49.9682                 0.0107                11.9394

                     19                     20                     21
                      A                      A                      A
 Frequencies --   1043.6184              1090.0621              1117.3215
 Red. masses --      1.5534                 2.0406                 1.7565
 Frc consts  --      0.9968                 1.4286                 1.2920
 IR Inten    --     76.9870               145.0702               194.3450

                     22                     23                     24
                      A                      A                      A
 Frequencies --   1170.7357              1266.9582              1314.8105
 Red. masses --      1.9214                 4.8237                 1.7974
 Frc consts  --      1.5516                 4.5620                 1.8307
 IR Inten    --     18.3738               248.6750               221.0990

                     25                     26                     27
                      A                      A                      A
 Frequencies --   1351.9200              1383.7198              1407.2896
 Red. masses --      5.9049                 2.6880                 3.7482
 Frc consts  --      6.3587                 3.0324                 4.3736
 IR Inten    --     80.5085               124.6651               501.4952

                     28                     29                     30
                      A                      A                      A
 Frequencies --   1515.9791              1533.6525              1595.4338
 Red. masses --      5.8903                 4.3954                 1.0450
 Frc consts  --      7.9758                 6.0911                 1.5672
 IR Inten    --     44.5141                 3.3488                57.7895

                     31                     32                     33
                      A                      A                      A
 Frequencies --   1801.3797              1955.4341              3316.0440
 Red. masses --      1.1963                 6.6096                 1.0941
 Frc consts  --      2.2871                14.8906                 7.0881
 IR Inten    --   3563.1923               151.0526                 3.8586

                     34                     35                     36
                      A                      A                      A
 Frequencies --   3336.4713              3760.3426              3883.1029
 Red. masses --      1.1068                 1.0433                 1.0846
 Frc consts  --      7.2595                 8.6922                 9.6357
 IR Inten    --      7.4455               115.2536               230.0543

 - Thermochemistry -
 -------------------
 Temperature   298.150 Kelvin.  Pressure   1.00000 Atm.
 Atom     1 has atomic number  7 and mass  14.00307

 Molecular mass:   131.03309 amu.
 Principal axes and moments of inertia in atomic units:
                           1         2         3
     Eigenvalues --   870.161381112.227371978.73455
           X            0.98876   0.14941  -0.00546
           Y           -0.14945   0.98875  -0.00662
           Z            0.00441   0.00736   0.99996
 This molecule is an asymmetric top.
 Rotational symmetry number  1.
 Warning -- assumption of classical behavior for rotation
           may cause significant error
 Rotational temperatures (Kelvin)      0.09954     0.07787     0.04377
 Rotational constants (GHZ):           2.07403     1.62264     0.91207
    1 imaginary frequencies ignored.
 Zero-point vibrational energy     253643.4 (Joules/Mol)
                                   60.62222 (Kcal/Mol)
 Warning -- explicit consideration of  10 degrees of freedom as
           vibrations may cause significant error
 Vibrational temperatures:    118.50   168.88   221.53   233.24   346.78
          (Kelvin)            394.90   539.67   588.36   740.81   811.62
                              935.22  1032.09  1129.94  1132.36  1201.53
                             1310.12  1412.64  1501.53  1568.36  1607.58
                             1684.43  1822.87  1891.72  1945.11  1990.86
                             2024.78  2181.16  2206.58  2295.47  2591.78
                             2813.43  4771.05  4800.44  5410.29  5586.92

 Zero-point correction=                           0.096608 (Hartree/Particle)
 Thermal correction to Energy=                    0.104878
 Thermal correction to Enthalpy=                  0.105822
 Thermal correction to Gibbs Free Energy=         0.063020
 Sum of electronic and zero-point Energies=           -506.925057
 Sum of electronic and thermal Energies=              -506.916787
 Sum of electronic and thermal Enthalpies=            -506.915843
 Sum of electronic and thermal Free Energies=         -506.958645

                     E (Thermal)             CV                S
                      KCal/Mol        Cal/Mol-Kelvin    Cal/Mol-Kelvin
 Total                   65.812             28.979             90.085
 Electronic               0.000              0.000              0.000
 Translational            0.889              2.981             40.524
 Rotational               0.889              2.981             29.039
 Vibrational             64.035             23.018             20.522
 Vibration     1          0.600              1.961              3.834
 Vibration     2          0.608              1.935              3.143
 Vibration     3          0.619              1.898              2.623
 Vibration     4          0.622              1.889              2.525
 Vibration     5          0.658              1.778              1.795
 Vibration     6          0.677              1.721              1.568
 Vibration     7          0.746              1.523              1.059
 Vibration     8          0.773              1.451              0.930
 Vibration     9          0.870              1.217              0.622
 Vibration    10          0.920              1.109              0.516

 Optimization completed.
    -- Stationary point found.
 Normal termination of Gaussian 16 at Mon Jul 10 23:44:04 2023.
