 Gaussian 16, Revision A.03,
 Gaussian 16:  ES64L-G16RevA.03 25-Dec-2016

 ----------------------------
 # opt freq 6-31+g(d,p) m062x
 ----------------------------

 ----
 test
 ----
 Symbolic Z-matrix:
 Charge = -1 Multiplicity = 2

 SCF Done:  E(UM062X) =  -507.060818367     A.U. after   18 cycles
 SCF Done:  E(UM062X) =  -507.073134918     A.U. after   16 cycles
 SCF Done:  E(UM062X) =  -507.078674005     A.U. after   16 cycles
 SCF Done:  E(UM062X) =  -507.078760253     A.U. after   13 cycles
 SCF Done:  E(UM062X) =  -507.079331417     A.U. after   15 cycles
 SCF Done:  E(UM062X) =  -507.079816228     A.U. after   15 cycles
 SCF Done:  E(UM062X) =  -507.080301605     A.U. after   16 cycles
 SCF Done:  E(UM062X) =  -506.659011391     A.U. after   24 cycles
 SCF Done:  E(UM062X) =  -507.080618822     A.U. after   15 cycles
 SCF Done:  E(UM062X) =  -507.080857387     A.U. after   16 cycles
 SCF Done:  E(UM062X) =  -507.081600793     A.U. after   13 cycles
 SCF Done:  E(UM062X) =  -507.081603250     A.U. after   11 cycles
 SCF Done:  E(UM062X) =  -507.081606547     A.U. after   11 cycles
 SCF Done:  E(UM062X) =  -507.081608717     A.U. after   11 cycles
 SCF Done:  E(UM062X) =  -507.081610607     A.U. after   10 cycles
 SCF Done:  E(UM062X) =  -507.081612340     A.U. after   11 cycles
 SCF Done:  E(UM062X) =  -507.081612406     A.U. after   11 cycles
 SCF Done:  E(UM062X) =  -507.081612825     A.U. after   10 cycles
 SCF Done:  E(UM062X) =  -507.081612887     A.U. after   10 cycles
 Optimization completed.
    -- Stationary point found.
 Normal termination of Gaussian 16 at Sun Jun  4 07:40:51 2023.

 ----------------------------------------------------------------------
 #N Geom=AllCheck Guess=TCheck SCRF=Check GenChk UM062X/6-31+G(d,p) Fre
 q
 ----------------------------------------------------------------------

 Structure from the checkpoint file:  "/scratch/gongke2021/PC/Gau-25934.chk"
 ----
 test
 ----
 Charge = -1 Multiplicity = 2

                         Standard orientation:
 ---------------------------------------------------------------------
 Center     Atomic      Atomic             Coordinates (Angstroms)
 Number     Number       Type             X           Y           Z
 ---------------------------------------------------------------------
      1          7           0       -0.058563    1.019017   -0.063986
      2          7           0       -0.462368   -0.323353   -0.008354
      3          6           0       -1.856003   -0.377163    0.045977
      4          6           0       -2.235253    0.950054    0.018938
      5          7           0       -1.174383    1.770376   -0.045480
      6          1           0       -2.375861   -1.317408    0.090131
      7          1           0       -3.239835    1.351694    0.043249
      8          1           0        1.523266    1.641168   -0.082753
      9          6           0        0.380118   -1.393286   -0.008718
     10          8           0       -0.022883   -2.554154    0.046045
     11          8           0        1.703552   -1.115100   -0.067936
     12          1           0        2.699736    1.924414    0.896025
     13          8           0        2.521791    1.697037   -0.021186
     14          1           0        1.907037   -0.162043   -0.114467
 ---------------------------------------------------------------------

 SCF Done:  E(UM062X) =  -507.081612887     A.U. after    1 cycles

 The electronic state is 2-A.
 Alpha  occ. eigenvalues --  -19.52826 -19.50086 -19.46226 -14.68712 -14.64627
 Alpha  occ. eigenvalues --  -14.61754 -10.54365 -10.42293 -10.42209  -1.07882
 Alpha  occ. eigenvalues --   -1.01606  -0.98501  -0.97268  -0.85224  -0.73720
 Alpha  occ. eigenvalues --   -0.62972  -0.54276  -0.53244  -0.49862  -0.45292
 Alpha  occ. eigenvalues --   -0.41543  -0.38504  -0.38142  -0.35009  -0.34265
 Alpha  occ. eigenvalues --   -0.33610  -0.31406  -0.25797  -0.24771  -0.24267
 Alpha  occ. eigenvalues --   -0.21880  -0.20895  -0.18688  -0.17706  -0.00322
 Alpha virt. eigenvalues --    0.13619   0.15781   0.16593   0.17466   0.18168
 Alpha virt. eigenvalues --    0.18829   0.19555   0.20846   0.23073   0.23553
 Alpha virt. eigenvalues --    0.24213   0.24665   0.26112   0.27796   0.28447

  Beta  occ. eigenvalues --  -19.52787 -19.50089 -19.45997 -14.68643 -14.64063
  Beta  occ. eigenvalues --  -14.61492 -10.54266 -10.42351 -10.42005  -1.07446
  Beta  occ. eigenvalues --   -1.00739  -0.98456  -0.96765  -0.84337  -0.72735
  Beta  occ. eigenvalues --   -0.61878  -0.53888  -0.52881  -0.49235  -0.45144
  Beta  occ. eigenvalues --   -0.39900  -0.38037  -0.37805  -0.34498  -0.33545
  Beta  occ. eigenvalues --   -0.32495  -0.31226  -0.25692  -0.23489  -0.23074
  Beta  occ. eigenvalues --   -0.21206  -0.18309  -0.17944  -0.14252
  Beta virt. eigenvalues --    0.13274   0.14407   0.14998   0.15732   0.17174
  Beta virt. eigenvalues --    0.17949   0.18185   0.19724   0.20051   0.21807
  Beta virt. eigenvalues --    0.22452   0.23931   0.25212   0.26328   0.27214

 Mulliken charges and spin densities:
               1          2
     1  N   -0.351273   0.361373
     2  N   -0.165897  -0.031982
     3  C   -0.201263   0.362162
     4  C   -0.208490  -0.137337
     5  N   -0.353397   0.209830
     6  H    0.175134  -0.015449
     7  H    0.119560   0.003566
     8  H    0.460733  -0.005815
     9  C    0.678304   0.123540
    10  O   -0.582476   0.111300
    11  O   -0.550338   0.013889
    12  H    0.356591  -0.000618
    13  O   -0.799186   0.005745
    14  H    0.421997  -0.000205
 Sum of Mulliken charges =  -1.00000   1.00000

 Dipole moment (field-independent basis, Debye):
    X=             -1.0944    Y=              1.1494    Z=              1.4955  Tot=              2.1807
 Quadrupole moment (field-independent basis, Debye-Ang):
   XX=            -65.5940   YY=            -82.6367   ZZ=            -56.1186
   XY=              2.9642   XZ=              4.3911   YZ=              3.7180

  Exact polarizability: 100.352  -5.021 107.486  -0.075  -0.448  54.496
 Approx polarizability: 106.446  -2.070 125.369  -0.468  -1.152  64.181

                      1                      2                      3
                      A                      A                      A
 Frequencies --     35.5643                98.4038               127.8699
 Red. masses --      6.7343                 8.0708                 5.0291
 Frc consts  --      0.0050                 0.0460                 0.0484
 IR Inten    --      3.3835                 6.3298                 4.6411

                      4                      5                      6
                      A                      A                      A
 Frequencies --    145.4906               195.8844               249.5086
 Red. masses --      6.1001                 4.4133                 3.8342
 Frc consts  --      0.0761                 0.0998                 0.1406
 IR Inten    --     11.2918                12.0970                11.0735

                      7                      8                      9
                      A                      A                      A
 Frequencies --    278.3571               392.2651               442.0674
 Red. masses --      1.5545                 1.0427                12.5978
 Frc consts  --      0.0710                 0.0945                 1.4505
 IR Inten    --    104.3550                64.7354                20.8188

                     10                     11                     12
                      A                      A                      A
 Frequencies --    454.3682               538.0370               555.4433
 Red. masses --      8.2026                 1.2144                 6.4671
 Frc consts  --      0.9977                 0.2071                 1.1755
 IR Inten    --      1.1491                57.1810                 7.7426

                     13                     14                     15
                      A                      A                      A
 Frequencies --    620.2227               639.1452               695.9897
 Red. masses --      4.7669                 2.0372                 1.8324
 Frc consts  --      1.0804                 0.4903                 0.5230
 IR Inten    --      0.8205               131.2661                22.6206

                     16                     17                     18
                      A                      A                      A
 Frequencies --    741.4276               859.9285               925.0433
 Red. masses --      7.6741                 1.2422                 4.7591
 Frc consts  --      2.4855                 0.5412                 2.3994
 IR Inten    --      4.8842                13.8470                21.2797

                     19                     20                     21
                      A                      A                      A
 Frequencies --    936.8587               985.0196              1056.7581
 Red. masses --      2.3467                 1.4915                 1.6325
 Frc consts  --      1.2136                 0.8526                 1.0741
 IR Inten    --    135.5823               182.7067                43.8864

                     22                     23                     24
                      A                      A                      A
 Frequencies --   1117.7109              1151.3385              1218.4977
 Red. masses --      3.2864                 3.6664                 3.3117
 Frc consts  --      2.4189                 2.8635                 2.8970
 IR Inten    --     73.7450               180.5226                 4.7751

                     25                     26                     27
                      A                      A                      A
 Frequencies --   1275.1219              1317.8513              1411.9516
 Red. masses --      1.4663                 3.6047                 3.9062
 Frc consts  --      1.4047                 3.6885                 4.5882
 IR Inten    --    118.7994               166.7477                92.1566

                     28                     29                     30
                      A                      A                      A
 Frequencies --   1481.0464              1526.7343              1645.6819
 Red. masses --      4.0997                 9.6148                 1.0709
 Frc consts  --      5.2983                13.2044                 1.7088
 IR Inten    --     60.7320               220.6703                53.3853

                     31                     32                     33
                      A                      A                      A
 Frequencies --   1776.2337              3110.3917              3260.2231
 Red. masses --      9.8599                 1.0713                 1.0944
 Frc consts  --     18.3282                 6.1065                 6.8539
 IR Inten    --    748.7445              1607.6488                26.6029

                     34                     35                     36
                      A                      A                      A
 Frequencies --   3353.4888              3697.3326              3947.7705
 Red. masses --      1.0977                 1.0666                 1.0656
 Frc consts  --      7.2729                 8.5903                 9.7850
 IR Inten    --      3.0546               446.2428                52.5308

 - Thermochemistry -
 -------------------
 Temperature   298.150 Kelvin.  Pressure   1.00000 Atm.
 Atom     1 has atomic number  7 and mass  14.00307

 Molecular mass:   131.03309 amu.
 Principal axes and moments of inertia in atomic units:
                           1         2         3
     Eigenvalues --   984.707941091.004772068.22771
           X            0.97768   0.21000   0.00578
           Y           -0.21003   0.97768   0.00579
           Z           -0.00443  -0.00687   0.99997
 This molecule is an asymmetric top.
 Rotational symmetry number  1.
 Warning -- assumption of classical behavior for rotation
           may cause significant error
 Rotational temperatures (Kelvin)      0.08796     0.07939     0.04188
 Rotational constants (GHZ):           1.83277     1.65420     0.87260
 Zero-point vibrational energy     252801.0 (Joules/Mol)
                                   60.42089 (Kcal/Mol)
 Warning -- explicit consideration of  13 degrees of freedom as
           vibrations may cause significant error
 Vibrational temperatures:     51.17   141.58   183.98   209.33   281.83
          (Kelvin)            358.99   400.49   564.38   636.04   653.73
                              774.12   799.16   892.36   919.59  1001.37
                             1066.75  1237.25  1330.93  1347.93  1417.22
                             1520.44  1608.14  1656.52  1753.15  1834.62
                             1896.09  2031.48  2130.90  2196.63  2367.77
                             2555.60  4475.16  4690.73  4824.92  5319.64
                             5679.96

 Zero-point correction=                           0.096287 (Hartree/Particle)
 Thermal correction to Energy=                    0.105621
 Thermal correction to Enthalpy=                  0.106565
 Thermal correction to Gibbs Free Energy=         0.060414
 Sum of electronic and zero-point Energies=           -506.985326
 Sum of electronic and thermal Energies=              -506.975992
 Sum of electronic and thermal Enthalpies=            -506.975048
 Sum of electronic and thermal Free Energies=         -507.021198

                     E (Thermal)             CV                S
                      KCal/Mol        Cal/Mol-Kelvin    Cal/Mol-Kelvin
 Total                   66.278             32.596             97.132
 Electronic               0.000              0.000              1.377
 Translational            0.889              2.981             40.524
 Rotational               0.889              2.981             29.187
 Vibrational             64.500             26.635             26.044
 Vibration     1          0.594              1.982              5.492
 Vibration     2          0.604              1.950              3.486
 Vibration     3          0.611              1.925              2.978
 Vibration     4          0.617              1.908              2.730
 Vibration     5          0.636              1.846              2.171
 Vibration     6          0.662              1.764              1.734
 Vibration     7          0.679              1.714              1.544
 Vibration     8          0.760              1.487              0.992
 Vibration     9          0.802              1.378              0.820
 Vibration    10          0.813              1.351              0.783
 Vibration    11          0.893              1.166              0.570
 Vibration    12          0.911              1.128              0.533
 Vibration    13          0.980              0.989              0.416

 Optimization completed.
    -- Stationary point found.
 Normal termination of Gaussian 16 at Sun Jun  4 07:42:15 2023.
