 Gaussian 16, Revision A.03,
 Gaussian 16:  ES64L-G16RevA.03 25-Dec-2016

 ----------------------------------------------------------------------
 # opt=(calcfc,ts,noeigentest) freq 6-31+g(d,p) integral=grid=ultrafine
  m062x
 ----------------------------------------------------------------------

 ----
 test
 ----
 Symbolic Z-matrix:
 Charge = -1 Multiplicity = 2

 SCF Done:  E(UM062X) =  -507.012605406     A.U. after   20 cycles
 SCF Done:  E(UM062X) =  -507.036079950     A.U. after   17 cycles
 SCF Done:  E(UM062X) =  -507.054321565     A.U. after   17 cycles
 SCF Done:  E(UM062X) =  -507.064756499     A.U. after   16 cycles
 SCF Done:  E(UM062X) =  -507.069582979     A.U. after   16 cycles
 SCF Done:  E(UM062X) =  -507.073430197     A.U. after   16 cycles
 SCF Done:  E(UM062X) =  -507.074161738     A.U. after   16 cycles
 SCF Done:  E(UM062X) =  -507.074539459     A.U. after   16 cycles
 SCF Done:  E(UM062X) =  -507.074985234     A.U. after   16 cycles
 SCF Done:  E(UM062X) =  -507.074606106     A.U. after   15 cycles
 SCF Done:  E(UM062X) =  -507.073088226     A.U. after   17 cycles
 SCF Done:  E(UM062X) =  -507.074491584     A.U. after   16 cycles
 SCF Done:  E(UM062X) =  -507.074455819     A.U. after   17 cycles
 SCF Done:  E(UM062X) =  -507.074986563     A.U. after   15 cycles
 SCF Done:  E(UM062X) =  -507.074983556     A.U. after   15 cycles
 SCF Done:  E(UM062X) =  -507.074993618     A.U. after   15 cycles
 SCF Done:  E(UM062X) =  -507.074996055     A.U. after   14 cycles
 SCF Done:  E(UM062X) =  -507.074996354     A.U. after   12 cycles
 SCF Done:  E(UM062X) =  -507.074996493     A.U. after   11 cycles
 Optimization completed.
    -- Stationary point found.
 Normal termination of Gaussian 16 at Sun Jun  4 07:25:57 2023.

 ----------------------------------------------------------------------
 #N Geom=AllCheck Guess=TCheck SCRF=Check GenChk UM062X/6-31+G(d,p) Fre
 q
 ----------------------------------------------------------------------

 Structure from the checkpoint file:  "/scratch/gongke2021/TS/Gau-19347.chk"
 ----
 test
 ----
 Charge = -1 Multiplicity = 2

                         Standard orientation:
 ---------------------------------------------------------------------
 Center     Atomic      Atomic             Coordinates (Angstroms)
 Number     Number       Type             X           Y           Z
 ---------------------------------------------------------------------
      1          7           0        0.561643   -0.921850   -0.362055
      2          7           0        0.241370    0.404843   -0.026638
      3          6           0        1.435322    1.078573    0.210544
      4          6           0        2.406606    0.107704    0.112225
      5          7           0        1.893764   -1.098496   -0.189675
      6          1           0        1.439862    2.130605    0.433779
      7          1           0        3.472824    0.225938    0.252591
      8          1           0       -0.292092   -1.713507   -0.037684
      9          6           0       -1.029484    0.967965   -0.057905
     10          8           0       -1.147145    2.183187    0.085111
     11          8           0       -2.036694    0.141230   -0.245059
     12          1           0       -1.517218   -2.413475    1.176176
     13          8           0       -1.442084   -2.192926    0.242873
     14          1           0       -1.848095   -0.898408   -0.028858
 ---------------------------------------------------------------------

 SCF Done:  E(UM062X) =  -507.074996493     A.U. after    1 cycles

 The electronic state is 2-A.
 Alpha  occ. eigenvalues --  -19.49671 -19.46201 -19.46144 -14.69050 -14.66422
 Alpha  occ. eigenvalues --  -14.62993 -10.54766 -10.43500 -10.43408  -1.07236
 Alpha  occ. eigenvalues --   -1.02203  -0.96764  -0.92404  -0.85752  -0.75657
 Alpha  occ. eigenvalues --   -0.63144  -0.55271  -0.52202  -0.51759  -0.42872
 Alpha  occ. eigenvalues --   -0.40743  -0.39622  -0.38381  -0.35783  -0.34936
 Alpha  occ. eigenvalues --   -0.32456  -0.29267  -0.24227  -0.23676  -0.22448
 Alpha  occ. eigenvalues --   -0.21363  -0.20827  -0.19198  -0.18725  -0.02106
 Alpha virt. eigenvalues --    0.13167   0.15673   0.16117   0.17330   0.18101
 Alpha virt. eigenvalues --    0.18655   0.19312   0.21041   0.22588   0.23689
 Alpha virt. eigenvalues --    0.24129   0.25277   0.26122   0.27068   0.28686

  Beta  occ. eigenvalues --  -19.49629 -19.46124 -19.46047 -14.68841 -14.65881
  Beta  occ. eigenvalues --  -14.62591 -10.54733 -10.43589 -10.43209  -1.06681
  Beta  occ. eigenvalues --   -1.01275  -0.96449  -0.92296  -0.84595  -0.74645
  Beta  occ. eigenvalues --   -0.61954  -0.54804  -0.51640  -0.51331  -0.41552
  Beta  occ. eigenvalues --   -0.39746  -0.39188  -0.38077  -0.35196  -0.33880
  Beta  occ. eigenvalues --   -0.31629  -0.28988  -0.23557  -0.22190  -0.21063
  Beta  occ. eigenvalues --   -0.20501  -0.18789  -0.18417  -0.15832
  Beta virt. eigenvalues --    0.12846   0.13453   0.14851   0.15707   0.16888
  Beta virt. eigenvalues --    0.18006   0.18713   0.19061   0.20209   0.21521
  Beta virt. eigenvalues --    0.22754   0.24414   0.25399   0.25753   0.27152

 Mulliken charges and spin densities:
               1          2
     1  N   -0.289978   0.279801
     2  N   -0.231514   0.058663
     3  C   -0.195244   0.346279
     4  C   -0.206428  -0.161161
     5  N   -0.246504   0.320429
     6  H    0.181013  -0.014674
     7  H    0.125519   0.004860
     8  H    0.489634   0.001504
     9  C    0.736639   0.060043
    10  O   -0.577655   0.077402
    11  O   -0.625408   0.015299
    12  H    0.362457  -0.000856
    13  O   -1.036639   0.012354
    14  H    0.514109   0.000058
 Sum of Mulliken charges =  -1.00000   1.00000

 Dipole moment (field-independent basis, Debye):
    X=              2.6920    Y=              0.3874    Z=              2.0515  Tot=              3.4067
 Quadrupole moment (field-independent basis, Debye-Ang):
   XX=            -72.0082   YY=            -76.4304   ZZ=            -55.5679
   XY=              7.5981   XZ=             -1.0204   YZ=             -4.0053

  Exact polarizability: 104.045  -3.466  98.621   0.876   3.098  54.765
 Approx polarizability: 110.668  -6.815 117.770   1.540   6.371  66.633

 ******    1 imaginary frequencies (negative Signs) ******

                      1                      2                      3
                      A                      A                      A
 Frequencies --   -782.6305                85.2186               120.5361
 Red. masses --      1.2477                 6.0631                 7.0143
 Frc consts  --      0.4503                 0.0259                 0.0600
 IR Inten    --   1164.3362                 2.6066                 1.2868

                      4                      5                      6
                      A                      A                      A
 Frequencies --    139.6909               244.0203               389.6325
 Red. masses --      7.1489                 7.3193                 6.5867
 Frc consts  --      0.0822                 0.2568                 0.5892
 IR Inten    --      5.0476                18.9414                 4.9074

                      7                      8                      9
                      A                      A                      A
 Frequencies --    398.3033               483.3405               504.6053
 Red. masses --      7.6585                 1.4313                 1.8773
 Frc consts  --      0.7159                 0.1970                 0.2816
 IR Inten    --     48.1441                10.2274               102.0744

                     10                     11                     12
                      A                      A                      A
 Frequencies --    530.2161               561.7483               571.2257
 Red. masses --     10.5335                 1.6699                 6.6914
 Frc consts  --      1.7447                 0.3105                 1.2864
 IR Inten    --    122.2666               214.3285                63.9081

                     13                     14                     15
                      A                      A                      A
 Frequencies --    598.9288               620.1366               727.2846
 Red. masses --      1.2060                 4.3564                11.6442
 Frc consts  --      0.2549                 0.9871                 3.6289
 IR Inten    --     54.9297                10.9960                23.4063

                     16                     17                     18
                      A                      A                      A
 Frequencies --    832.6381               874.2714               934.7958
 Red. masses --      5.2607                 1.2505                 4.7983
 Frc consts  --      2.1489                 0.5632                 2.4704
 IR Inten    --    379.8783                 9.4140                20.5621

                     19                     20                     21
                      A                      A                      A
 Frequencies --    983.7890              1071.3366              1149.6059
 Red. masses --      3.1700                 1.5038                 3.4133
 Frc consts  --      1.8077                 1.0169                 2.6578
 IR Inten    --     87.9594                38.7364               118.6466

                     22                     23                     24
                      A                      A                      A
 Frequencies --   1209.1188              1244.8532              1303.4282
 Red. masses --      5.9469                 3.4756                 1.2244
 Frc consts  --      5.1224                 3.1733                 1.2256
 IR Inten    --     89.5440                32.0571               102.0074

                     25                     26                     27
                      A                      A                      A
 Frequencies --   1328.9128              1391.7666              1430.0763
 Red. masses --      2.4502                 2.7805                 1.3812
 Frc consts  --      2.5495                 3.1732                 1.6642
 IR Inten    --    100.3375               222.8507               115.0528

                     28                     29                     30
                      A                      A                      A
 Frequencies --   1468.0835              1512.4953              1528.3395
 Red. masses --      3.5719                 2.2043                 1.7761
 Frc consts  --      4.5358                 2.9711                 2.4443
 IR Inten    --    509.4932                 7.3590               741.3247

                     31                     32                     33
                      A                      A                      A
 Frequencies --   1732.1938              1791.1057              2087.7845
 Red. masses --      1.7897                 2.0405                 1.1275
 Frc consts  --      3.1638                 3.8568                 2.8956
 IR Inten    --    901.1350               259.8303              3001.8369

                     34                     35                     36
                      A                      A                      A
 Frequencies --   3265.0872              3352.7551              3936.1592
 Red. masses --      1.0948                 1.0978                 1.0658
 Frc consts  --      6.8767                 7.2709                 9.7294
 IR Inten    --     23.3308                 6.8097                17.5997

 - Thermochemistry -
 -------------------
 Temperature   298.150 Kelvin.  Pressure   1.00000 Atm.
 Atom     1 has atomic number  7 and mass  14.00307

 Molecular mass:   131.03309 amu.
 Principal axes and moments of inertia in atomic units:
                           1         2         3
     Eigenvalues --   820.265311110.547051882.93424
           X            0.99293   0.11872  -0.00094
           Y           -0.11873   0.99289  -0.00829
           Z           -0.00005   0.00834   0.99997
 This molecule is an asymmetric top.
 Rotational symmetry number  1.
 Warning -- assumption of classical behavior for rotation
           may cause significant error
 Rotational temperatures (Kelvin)      0.10559     0.07799     0.04600
 Rotational constants (GHZ):           2.20019     1.62509     0.95847
    1 imaginary frequencies ignored.
 Zero-point vibrational energy     241666.5 (Joules/Mol)
                                   57.75968 (Kcal/Mol)
 Warning -- explicit consideration of  13 degrees of freedom as
           vibrations may cause significant error
 Vibrational temperatures:    122.61   173.42   200.98   351.09   560.59
          (Kelvin)            573.07   695.42   726.01   762.86   808.23
                              821.87   861.72   892.24  1046.40  1197.98
                             1257.88  1344.96  1415.45  1541.41  1654.03
                             1739.65  1791.07  1875.34  1912.01  2002.44
                             2057.56  2112.24  2176.14  2198.94  2492.24
                             2577.00  3003.86  4697.73  4823.87  5663.26

 Zero-point correction=                           0.092046 (Hartree/Particle)
 Thermal correction to Energy=                    0.099903
 Thermal correction to Enthalpy=                  0.100847
 Thermal correction to Gibbs Free Energy=         0.058454
 Sum of electronic and zero-point Energies=           -506.982951
 Sum of electronic and thermal Energies=              -506.975093
 Sum of electronic and thermal Enthalpies=            -506.974149
 Sum of electronic and thermal Free Energies=         -507.016542

                     E (Thermal)             CV                S
                      KCal/Mol        Cal/Mol-Kelvin    Cal/Mol-Kelvin
 Total                   62.690             28.906             89.224
 Electronic               0.000              0.000              1.377
 Translational            0.889              2.981             40.524
 Rotational               0.889              2.981             28.930
 Vibrational             60.913             22.945             18.393
 Vibration     1          0.601              1.959              3.767
 Vibration     2          0.609              1.932              3.092
 Vibration     3          0.615              1.914              2.808
 Vibration     4          0.659              1.773              1.773
 Vibration     5          0.758              1.492              1.002
 Vibration     6          0.765              1.474              0.969
 Vibration     7          0.840              1.287              0.701
 Vibration     8          0.860              1.240              0.647
 Vibration     9          0.885              1.183              0.587
 Vibration    10          0.917              1.114              0.520
 Vibration    11          0.927              1.093              0.502
 Vibration    12          0.957              1.034              0.452
 Vibration    13          0.980              0.989              0.416

 Optimization completed.
    -- Stationary point found.
 Normal termination of Gaussian 16 at Sun Jun  4 07:27:24 2023.
