 Gaussian 16, Revision C.01,
 Gaussian 16:  ES64L-G16RevC.01  3-Jul-2019

 ----------------------------------------------------------------------
 # opt=(calcfc,ts,noeigentest) freq 6-31+g(d,p) integral=grid=ultrafine
  m062x
 ----------------------------------------------------------------------

 ----
 test
 ----
 Symbolic Z-matrix:
 Charge =  0 Multiplicity = 1

 SCF Done:  E(RM062X) =  -507.045654963     A.U. after   14 cycles
 SCF Done:  E(RM062X) =  -507.052627469     A.U. after   12 cycles
 SCF Done:  E(RM062X) =  -507.052320057     A.U. after   14 cycles
 SCF Done:  E(RM062X) =  -507.052319744     A.U. after   13 cycles
 SCF Done:  E(RM062X) =  -507.052218801     A.U. after   13 cycles
 SCF Done:  E(RM062X) =  -507.052666581     A.U. after   13 cycles
 SCF Done:  E(RM062X) =  -507.053014953     A.U. after   12 cycles
 SCF Done:  E(RM062X) =  -507.053029950     A.U. after   11 cycles
 SCF Done:  E(RM062X) =  -507.053009464     A.U. after   12 cycles
 SCF Done:  E(RM062X) =  -507.053031491     A.U. after   12 cycles
 SCF Done:  E(RM062X) =  -507.053028599     A.U. after   11 cycles
 SCF Done:  E(RM062X) =  -507.053038473     A.U. after   11 cycles
 SCF Done:  E(RM062X) =  -507.053038617     A.U. after    9 cycles
 Optimization completed.
    -- Stationary point found.
 Normal termination of Gaussian 16 at Thu Dec  7 02:10:21 2023.

 ----------------------------------------------------------------------
 #N Geom=AllCheck Guess=TCheck SCRF=Check GenChk RM062X/6-31+G(d,p) Fre
 q
 ----------------------------------------------------------------------

 Structure from the checkpoint file:  "/home/gau/soft/scratch/Gau-193937.chk"
 ----
 test
 ----
 Charge =  0 Multiplicity = 1

                         Standard orientation:
 ---------------------------------------------------------------------
 Center     Atomic      Atomic             Coordinates (Angstroms)
 Number     Number       Type             X           Y           Z
 ---------------------------------------------------------------------
      1          7           0       -0.514274    0.946962   -0.005039
      2          7           0       -0.333170   -0.373874   -0.003295
      3          6           0       -1.532762   -0.972416    0.002092
      4          6           0       -2.449314    0.064433    0.004186
      5          7           0       -1.777995    1.235350   -0.000090
      6          1           0       -1.611760   -2.047884    0.003928
      7          1           0       -3.526867    0.035559    0.007901
      8          1           0        1.981584    1.081947   -0.048229
      9          6           0        1.051723   -1.096771   -0.000104
     10          8           0        0.926584   -2.293110    0.018182
     11          8           0        2.015585   -0.304065   -0.013710
     12          1           0        0.509900    1.733894   -0.014878
     13          8           0        1.638706    2.092709   -0.079582
     14          1           0        1.960342    2.601672    0.674072
 ---------------------------------------------------------------------

 SCF Done:  E(RM062X) =  -507.053038617     A.U. after    1 cycles

 The electronic state is 1-A.
 Alpha  occ. eigenvalues --  -19.70531 -19.65308 -19.63909 -14.89034 -14.88841
 Alpha  occ. eigenvalues --  -14.83897 -10.72766 -10.63023 -10.61175  -1.27864
 Alpha  occ. eigenvalues --   -1.22282  -1.19952  -1.13776  -1.05081  -0.95398
 Alpha  occ. eigenvalues --   -0.77225  -0.75810  -0.72588  -0.69652  -0.62716
 Alpha  occ. eigenvalues --   -0.60706  -0.59608  -0.56194  -0.54990  -0.53615
 Alpha  occ. eigenvalues --   -0.53023  -0.50344  -0.45534  -0.41066  -0.40243
 Alpha  occ. eigenvalues --   -0.39292  -0.37426  -0.36914  -0.36243
 Alpha virt. eigenvalues --   -0.02365   0.01011   0.02383   0.03661   0.03821
 Alpha virt. eigenvalues --    0.04605   0.05100   0.06010   0.07085   0.08613
 Alpha virt. eigenvalues --    0.09979   0.10084   0.10973   0.11856   0.12325

 Mulliken charges:
               1
     1  N   -0.270459
     2  N   -0.189851
     3  C   -0.023606
     4  C   -0.256504
     5  N   -0.074187
     6  H    0.236776
     7  H    0.193684
     8  H    0.529237
     9  C    0.808837
    10  O   -0.464641
    11  O   -0.645008
    12  H    0.523168
    13  O   -0.789182
    14  H    0.421736
 Sum of Mulliken charges =  -0.00000

 Dipole moment (field-independent basis, Debye):
    X=             -2.4638    Y=              2.6657    Z=              1.4046  Tot=              3.8922
 Quadrupole moment (field-independent basis, Debye-Ang):
   XX=            -49.7984   YY=            -55.6635   ZZ=            -51.7505
   XY=             13.4646   XZ=              3.0613   YZ=              4.3346

  Exact polarizability:      83.439       3.249      80.805       0.474       0.680      39.972
 Approx polarizability:      95.289       5.371     104.122       0.352       0.615      50.850

 ******    1 imaginary frequencies (negative Signs) ******

                      1                      2                      3
                      A                      A                      A
 Frequencies --   -773.0982                84.9555               102.5459
 Red. masses --      1.2228                 8.6146                 5.8096
 Frc consts  --      0.4306                 0.0366                 0.0360
 IR Inten    --    913.8109                 5.3519                11.2301

                      4                      5                      6
                      A                      A                      A
 Frequencies --    161.9800               225.5876               340.5819
 Red. masses --      7.3573                 7.6881                 9.0175
 Frc consts  --      0.1137                 0.2305                 0.6163
 IR Inten    --      2.6091                 5.3730                17.8918

                      7                      8                      9
                      A                      A                      A
 Frequencies --    455.0914               483.6242               523.8933
 Red. masses --      6.7882                 1.4494                 3.8262
 Frc consts  --      0.8283                 0.1997                 0.6187
 IR Inten    --      8.7400                23.3469               110.3538

                     10                     11                     12
                      A                      A                      A
 Frequencies --    559.4073               621.6473               649.5883
 Red. masses --      2.0476                 1.5120                 3.2213
 Frc consts  --      0.3775                 0.3443                 0.8009
 IR Inten    --    310.5828               124.4167                10.8899

                     13                     14                     15
                      A                      A                      A
 Frequencies --    710.1500               766.1744               805.0103
 Red. masses --      8.0849                10.5186                 9.7686
 Frc consts  --      2.4023                 3.6380                 3.7298
 IR Inten    --      2.1147                34.5905               434.8039

                     16                     17                     18
                      A                      A                      A
 Frequencies --    851.8385               927.4807               982.0622
 Red. masses --      1.2061                 1.3709                 5.8654
 Frc consts  --      0.5156                 0.6948                 3.3329
 IR Inten    --     46.2625                 0.0777                29.5484

                     19                     20                     21
                      A                      A                      A
 Frequencies --   1048.1682              1133.0019              1143.3321
 Red. masses --      1.6012                 1.3672                 1.7937
 Frc consts  --      1.0365                 1.0340                 1.3815
 IR Inten    --    113.4657               622.6273               254.9984

                     22                     23                     24
                      A                      A                      A
 Frequencies --   1195.8980              1272.4730              1342.6157
 Red. masses --      1.8205                 7.1879                 7.2419
 Frc consts  --      1.5340                 6.8572                 7.6914
 IR Inten    --    132.4580               371.5735               571.8048

                     25                     26                     27
                      A                      A                      A
 Frequencies --   1360.6585              1414.4549              1418.6066
 Red. masses --      3.9973                 6.0517                 1.1890
 Frc consts  --      4.3602                 7.1336                 1.4098
 IR Inten    --     25.3892               388.0264               191.5575

                     28                     29                     30
                      A                      A                      A
 Frequencies --   1520.3529              1536.3486              1601.4191
 Red. masses --      5.4746                 4.4170                 1.1045
 Frc consts  --      7.4557                 6.1426                 1.6689
 IR Inten    --     20.5506                11.9656              1102.0841

                     31                     32                     33
                      A                      A                      A
 Frequencies --   1810.1936              1977.8937              2378.1703
 Red. masses --      1.1855                 5.3307                 1.0899
 Frc consts  --      2.2887                12.2869                 3.6318
 IR Inten    --    638.3410               693.4014              1758.4913

                     34                     35                     36
                      A                      A                      A
 Frequencies --   3321.5258              3338.6271              3914.6914
 Red. masses --      1.0945                 1.1073                 1.0658
 Frc consts  --      7.1145                 7.2723                 9.6232
 IR Inten    --      7.3150                11.1421               151.1326

 - Thermochemistry -
 -------------------
 Temperature   298.150 Kelvin.  Pressure   1.00000 Atm.
 Atom     1 has atomic number  7 and mass  14.00307

 Molecular mass:   131.03309 amu.
 Principal axes and moments of inertia in atomic units:
                           1         2         3
     Eigenvalues --   826.546021107.298161929.90958
           X            0.98957   0.14397   0.00408
           Y           -0.14400   0.98955   0.00740
           Z           -0.00297  -0.00791   0.99996
 This molecule is an asymmetric top.
 Rotational symmetry number  1.
 Warning -- assumption of classical behavior for rotation
           may cause significant error
 Rotational temperatures (Kelvin)      0.10479     0.07822     0.04488
 Rotational constants (GHZ):           2.18347     1.62986     0.93514
    1 imaginary frequencies ignored.
 Zero-point vibrational energy     251096.5 (Joules/Mol)
                                   60.01349 (Kcal/Mol)
 Warning -- explicit consideration of   9 degrees of freedom as
           vibrations may cause significant error
 Vibrational temperatures:    122.23   147.54   233.05   324.57   490.02
          (Kelvin)            654.78   695.83   753.77   804.86   894.41
                              934.61  1021.75  1102.35  1158.23  1225.61
                             1334.44  1412.97  1508.08  1630.14  1645.00
                             1720.63  1830.80  1931.72  1957.68  2035.09
                             2041.06  2187.45  2210.46  2304.08  2604.46
                             2845.75  3421.66  4778.93  4803.54  5632.37

 Zero-point correction=                           0.095638 (Hartree/Particle)
 Thermal correction to Energy=                    0.103226
 Thermal correction to Enthalpy=                  0.104170
 Thermal correction to Gibbs Free Energy=         0.062739
 Sum of electronic and zero-point Energies=           -506.957401
 Sum of electronic and thermal Energies=              -506.949812
 Sum of electronic and thermal Enthalpies=            -506.948868
 Sum of electronic and thermal Free Energies=         -506.990300

                     E (Thermal)             CV                S
                      KCal/Mol        Cal/Mol-Kelvin    Cal/Mol-Kelvin
 Total                   64.775             27.484             87.199
 Electronic               0.000              0.000              0.000
 Translational            0.889              2.981             40.524
 Rotational               0.889              2.981             28.959
 Vibrational             62.998             21.522             17.717
 Vibration     1          0.601              1.960              3.773
 Vibration     2          0.605              1.947              3.405
 Vibration     3          0.622              1.889              2.527
 Vibration     4          0.650              1.802              1.914
 Vibration     5          0.720              1.594              1.209
 Vibration     6          0.813              1.350              0.781
 Vibration     7          0.840              1.286              0.700
 Vibration     8          0.879              1.197              0.601
 Vibration     9          0.915              1.119              0.525

 Optimization completed.
    -- Stationary point found.
 Normal termination of Gaussian 16 at Thu Dec  7 02:11:04 2023.
