 Gaussian 16, Revision A.03,
 Gaussian 16:  ES64L-G16RevA.03 25-Dec-2016

 ----------------------------------------------------------------------
 # opt=(calcfc,ts,noeigentest) freq 6-31+g(d,p) integral=grid=ultrafine
  m062x
 ----------------------------------------------------------------------

 ----
 test
 ----
 Symbolic Z-matrix:
 Charge = -1 Multiplicity = 2

 SCF Done:  E(UM062X) =  -430.610732174     A.U. after   19 cycles
 SCF Done:  E(UM062X) =  -430.628444947     A.U. after   18 cycles
 SCF Done:  E(UM062X) =  -430.642763707     A.U. after   18 cycles
 SCF Done:  E(UM062X) =  -430.649331679     A.U. after   17 cycles
 SCF Done:  E(UM062X) =  -430.650076441     A.U. after   18 cycles
 SCF Done:  E(UM062X) =  -430.650348659     A.U. after   15 cycles
 SCF Done:  E(UM062X) =  -430.650372847     A.U. after   14 cycles
 SCF Done:  E(UM062X) =  -430.650374324     A.U. after   13 cycles
 SCF Done:  E(UM062X) =  -430.650374401     A.U. after   12 cycles
 Optimization completed.
    -- Stationary point found.
 Normal termination of Gaussian 16 at Sun Jun  4 02:44:47 2023.

 ----------------------------------------------------------------------
 #N Geom=AllCheck Guess=TCheck SCRF=Check GenChk UM062X/6-31+G(d,p) Fre
 q
 ----------------------------------------------------------------------

 Structure from the checkpoint file:  "/scratch/gongke2021/TS/Gau-14312.chk"
 ----
 test
 ----
 Charge = -1 Multiplicity = 2

                         Standard orientation:
 ---------------------------------------------------------------------
 Center     Atomic      Atomic             Coordinates (Angstroms)
 Number     Number       Type             X           Y           Z
 ---------------------------------------------------------------------
      1          7           0       -0.653542   -1.021567    0.361646
      2          7           0        0.029165    0.214473    0.469898
      3          6           0       -0.869948    1.217628    0.092274
      4          6           0       -2.014457    0.544891   -0.277827
      5          7           0       -1.887680   -0.793917   -0.159068
      6          1           0       -0.593516    2.258215    0.094240
      7          1           0       -2.943181    0.973740   -0.633874
      8          1           0        0.435511   -1.556902   -0.095871
      9          6           0        1.372840    0.062709   -0.005863
     10          8           0        2.127333    1.018378   -0.113333
     11          8           0        1.592038   -1.195795   -0.252083
 ---------------------------------------------------------------------

 SCF Done:  E(UM062X) =  -430.650374401     A.U. after    1 cycles

 The electronic state is 2-A.
 Alpha  occ. eigenvalues --  -19.48172 -19.45822 -14.66015 -14.64138 -14.61486
 Alpha  occ. eigenvalues --  -10.53299 -10.42360 -10.42255  -1.06434  -0.99657
 Alpha  occ. eigenvalues --   -0.95339  -0.83201  -0.73548  -0.59570  -0.53754
 Alpha  occ. eigenvalues --   -0.48899  -0.46051  -0.41327  -0.37365  -0.36735
 Alpha  occ. eigenvalues --   -0.34802  -0.32153  -0.30785  -0.23624  -0.21839
 Alpha  occ. eigenvalues --   -0.20378  -0.19949  -0.18647  -0.16891  -0.01805
 Alpha virt. eigenvalues --    0.13908   0.15768   0.16932   0.17914   0.18713
 Alpha virt. eigenvalues --    0.19054   0.19445   0.21439   0.22239   0.23966
 Alpha virt. eigenvalues --    0.25359   0.25904   0.27134   0.27540   0.28941

  Beta  occ. eigenvalues --  -19.48143 -19.45750 -14.65754 -14.63587 -14.61063
  Beta  occ. eigenvalues --  -10.53222 -10.42395 -10.42094  -1.05932  -0.98757
  Beta  occ. eigenvalues --   -0.95106  -0.81988  -0.72526  -0.58268  -0.53207
  Beta  occ. eigenvalues --   -0.48084  -0.45523  -0.39749  -0.36961  -0.36411
  Beta  occ. eigenvalues --   -0.34314  -0.30719  -0.29842  -0.22610  -0.20545
  Beta  occ. eigenvalues --   -0.19213  -0.18007  -0.17107  -0.14006
  Beta virt. eigenvalues --    0.13514   0.14440   0.15175   0.16658   0.17550
  Beta virt. eigenvalues --    0.18611   0.18911   0.19607   0.20540   0.21374
  Beta virt. eigenvalues --    0.23518   0.25102   0.25936   0.26850   0.27543

 Mulliken charges and spin densities:
               1          2
     1  N   -0.288037   0.289459
     2  N   -0.207130   0.093109
     3  C   -0.257888   0.378678
     4  C   -0.165161  -0.168442
     5  N   -0.239262   0.321675
     6  H    0.156137  -0.015992
     7  H    0.117818   0.004909
     8  H    0.415667   0.017882
     9  C    0.695431   0.027775
    10  O   -0.611680   0.038918
    11  O   -0.615893   0.012027
 Sum of Mulliken charges =  -1.00000   1.00000

 Dipole moment (field-independent basis, Debye):
    X=             -2.2008    Y=              1.7105    Z=             -0.1131  Tot=              2.7897
 Quadrupole moment (field-independent basis, Debye-Ang):
   XX=            -70.3633   YY=            -55.6366   ZZ=            -51.2762
   XY=             -6.9175   XZ=              2.4707   YZ=             -0.2507

  Exact polarizability:  92.453   1.574  79.872   2.026  -0.282  49.237
 Approx polarizability: 102.675   7.194 102.895   3.733  -0.277  60.556

 ******    1 imaginary frequencies (negative Signs) ******

                      1                      2                      3
                      A                      A                      A
 Frequencies --  -1305.5633               141.8526               160.0999
 Red. masses --      1.1174                 7.3408                 9.0703
 Frc consts  --      1.1221                 0.0870                 0.1370
 IR Inten    --   1395.2582                 7.7852                 5.8818

                      4                      5                      6
                      A                      A                      A
 Frequencies --    301.8525               499.1673               546.2519
 Red. masses --      5.6860                10.4489                 2.0956
 Frc consts  --      0.3052                 1.5340                 0.3684
 IR Inten    --      2.6479                 2.5292                49.9554

                      7                      8                      9
                      A                      A                      A
 Frequencies --    583.0047               622.6114               667.4272
 Red. masses --      2.1051                 6.9512                 9.0442
 Frc consts  --      0.4216                 1.5876                 2.3737
 IR Inten    --      8.2847                11.9934                14.3984

                     10                     11                     12
                      A                      A                      A
 Frequencies --    791.2254               806.8334               871.6403
 Red. masses --     11.5854                10.7014                 1.2649
 Frc consts  --      4.2733                 4.1045                 0.5662
 IR Inten    --     25.0058                89.0032                10.1387

                     13                     14                     15
                      A                      A                      A
 Frequencies --    926.3661               955.0420              1052.8865
 Red. masses --      4.6707                 5.6973                 1.9365
 Frc consts  --      2.3615                 3.0617                 1.2648
 IR Inten    --      8.3971                23.5795                68.4712

                     16                     17                     18
                      A                      A                      A
 Frequencies --   1110.6711              1153.9512              1235.7487
 Red. masses --      3.0090                 2.9569                 2.9251
 Frc consts  --      2.1869                 2.3199                 2.6318
 IR Inten    --     98.4805                14.3858                26.2156

                     19                     20                     21
                      A                      A                      A
 Frequencies --   1244.3598              1314.0123              1370.2987
 Red. masses --      1.5936                 4.0007                 4.6445
 Frc consts  --      1.4539                 4.0699                 5.1383
 IR Inten    --     76.8486                83.7386               686.6135

                     22                     23                     24
                      A                      A                      A
 Frequencies --   1407.5122              1479.9610              1817.5901
 Red. masses --      3.2503                 4.1307                 7.6007
 Frc consts  --      3.7938                 5.3306                14.7943
 IR Inten    --    295.1848                15.2383               616.5489

                     25                     26                     27
                      A                      A                      A
 Frequencies --   2043.8437              3251.3370              3335.2070
 Red. masses --      1.0878                 1.0937                 1.0972
 Frc consts  --      2.6773                 6.8121                 7.1909
 IR Inten    --     82.5538                28.2867                 3.6933

 - Thermochemistry -
 -------------------
 Temperature   298.150 Kelvin.  Pressure   1.00000 Atm.
 Atom     1 has atomic number  7 and mass  14.00307

 Molecular mass:   113.02253 amu.
 Principal axes and moments of inertia in atomic units:
                           1         2         3
     Eigenvalues --   361.56654 951.678561256.57601
           X            0.99954  -0.02961   0.00712
           Y            0.02963   0.99955  -0.00346
           Z           -0.00702   0.00367   0.99997
 This molecule is an asymmetric top.
 Rotational symmetry number  1.
 Rotational temperatures (Kelvin)      0.23955     0.09101     0.06893
 Rotational constants (GHZ):           4.99145     1.89638     1.43624
    1 imaginary frequencies ignored.
 Zero-point vibrational energy     177590.1 (Joules/Mol)
                                   42.44506 (Kcal/Mol)
 Warning -- explicit consideration of   6 degrees of freedom as
           vibrations may cause significant error
 Vibrational temperatures:    204.09   230.35   434.30   718.19   785.93
          (Kelvin)            838.81   895.80   960.28  1138.40  1160.85
                             1254.10  1332.83  1374.09  1514.87  1598.01
                             1660.28  1777.97  1790.36  1890.57  1971.55
                             2025.10  2129.33  2615.11  2940.64  4677.95
                             4798.62

 Zero-point correction=                           0.067641 (Hartree/Particle)
 Thermal correction to Energy=                    0.073481
 Thermal correction to Enthalpy=                  0.074425
 Thermal correction to Gibbs Free Energy=         0.036723
 Sum of electronic and zero-point Energies=           -430.582734
 Sum of electronic and thermal Energies=              -430.576893
 Sum of electronic and thermal Enthalpies=            -430.575949
 Sum of electronic and thermal Free Energies=         -430.613652

                     E (Thermal)             CV                S
                      KCal/Mol        Cal/Mol-Kelvin    Cal/Mol-Kelvin
 Total                   46.110             21.185             79.352
 Electronic               0.000              0.000              1.377
 Translational            0.889              2.981             40.083
 Rotational               0.889              2.981             27.560
 Vibrational             44.333             15.223             10.332
 Vibration     1          0.615              1.911              2.779
 Vibration     2          0.622              1.891              2.549
 Vibration     3          0.694              1.670              1.407
 Vibration     4          0.855              1.252              0.660
 Vibration     5          0.901              1.148              0.552
 Vibration     6          0.940              1.068              0.480

                           ! Non-Optimized Parameters !
 Normal termination of Gaussian 16 at Sun Jun  4 02:45:40 2023.
