 Gaussian 16, Revision A.03,
 Gaussian 16:  ES64L-G16RevA.03 25-Dec-2016

 ----------------------------
 # opt freq 6-31+g(d,p) m062x
 ----------------------------

 ----
 test
 ----
 Symbolic Z-matrix:
 Charge = -1 Multiplicity = 2

 SCF Done:  E(UM062X) =  -506.992037750     A.U. after   19 cycles
 SCF Done:  E(UM062X) =  -507.038453713     A.U. after   15 cycles
 SCF Done:  E(UM062X) =  -507.061116152     A.U. after   16 cycles
 SCF Done:  E(UM062X) =  -507.072098694     A.U. after   16 cycles
 SCF Done:  E(UM062X) =  -507.078339901     A.U. after   17 cycles
 SCF Done:  E(UM062X) =  -507.082259440     A.U. after   16 cycles
 SCF Done:  E(UM062X) =  -507.085142265     A.U. after   16 cycles
 SCF Done:  E(UM062X) =  -507.086882636     A.U. after   15 cycles
 SCF Done:  E(UM062X) =  -507.088071412     A.U. after   16 cycles
 SCF Done:  E(UM062X) =  -507.088784853     A.U. after   16 cycles
 SCF Done:  E(UM062X) =  -507.091081949     A.U. after   11 cycles
 SCF Done:  E(UM062X) =  -507.091082491     A.U. after   10 cycles
 SCF Done:  E(UM062X) =  -507.091083103     A.U. after   12 cycles
 SCF Done:  E(UM062X) =  -507.091083412     A.U. after   10 cycles
 SCF Done:  E(UM062X) =  -507.091083859     A.U. after   11 cycles
 SCF Done:  E(UM062X) =  -507.091084436     A.U. after   10 cycles
 SCF Done:  E(UM062X) =  -507.091084846     A.U. after   11 cycles
 SCF Done:  E(UM062X) =  -507.091085021     A.U. after   10 cycles
 SCF Done:  E(UM062X) =  -507.091085094     A.U. after    9 cycles
 Optimization completed.
    -- Stationary point found.
 Normal termination of Gaussian 16 at Sun Jun  4 07:13:45 2023.

 ----------------------------------------------------------------------
 #N Geom=AllCheck Guess=TCheck SCRF=Check GenChk UM062X/6-31+G(d,p) Fre
 q
 ----------------------------------------------------------------------

 Structure from the checkpoint file:  "/scratch/gongke2021/RC/Gau-10055.chk"
 ----
 test
 ----
 Charge = -1 Multiplicity = 2

                         Standard orientation:
 ---------------------------------------------------------------------
 Center     Atomic      Atomic             Coordinates (Angstroms)
 Number     Number       Type             X           Y           Z
 ---------------------------------------------------------------------
      1          7           0       -0.470288   -0.968764    0.436034
      2          7           0       -0.343542    0.328509   -0.089506
      3          6           0       -1.626720    0.772407   -0.326459
      4          6           0       -2.449019   -0.311424   -0.125038
      5          7           0       -1.765407   -1.408582    0.258901
      6          1           0       -1.799410    1.795140   -0.614059
      7          1           0       -3.521865   -0.360085   -0.253796
      8          1           0        0.254695   -1.610311    0.106518
      9          6           0        0.839024    1.157471    0.113493
     10          8           0        0.666330    2.355891   -0.129874
     11          8           0        1.864467    0.522203    0.469168
     12          1           0        2.449243   -1.799311   -1.284218
     13          8           0        2.209553   -1.927200   -0.362299
     14          1           0        2.169484   -1.001443    0.019617
 ---------------------------------------------------------------------

 SCF Done:  E(UM062X) =  -507.091085094     A.U. after    1 cycles

 The electronic state is 2-A.
 Alpha  occ. eigenvalues --  -19.49390 -19.45201 -19.44463 -14.69327 -14.68297
 Alpha  occ. eigenvalues --  -14.63856 -10.52872 -10.44226 -10.44123  -1.05919
 Alpha  occ. eigenvalues --   -1.01209  -0.97650  -0.92852  -0.85244  -0.77809
 Alpha  occ. eigenvalues --   -0.61724  -0.55791  -0.53382  -0.47118  -0.43458
 Alpha  occ. eigenvalues --   -0.41228  -0.38365  -0.37865  -0.36391  -0.34425
 Alpha  occ. eigenvalues --   -0.33197  -0.31224  -0.25071  -0.24338  -0.23354
 Alpha  occ. eigenvalues --   -0.21874  -0.19717  -0.18143  -0.17439  -0.03942
 Alpha virt. eigenvalues --    0.12898   0.15524   0.15861   0.17530   0.17946
 Alpha virt. eigenvalues --    0.18439   0.19389   0.20866   0.21944   0.24027
 Alpha virt. eigenvalues --    0.24526   0.24962   0.26254   0.26611   0.27925

  Beta  occ. eigenvalues --  -19.49387 -19.45166 -19.44405 -14.68894 -14.67908
  Beta  occ. eigenvalues --  -14.63296 -10.52871 -10.44262 -10.44010  -1.04961
  Beta  occ. eigenvalues --   -1.00682  -0.97634  -0.92711  -0.83725  -0.76848
  Beta  occ. eigenvalues --   -0.60340  -0.55330  -0.52621  -0.46969  -0.41887
  Beta  occ. eigenvalues --   -0.40512  -0.37654  -0.37381  -0.35877  -0.34203
  Beta  occ. eigenvalues --   -0.31757  -0.31069  -0.24879  -0.23100  -0.19896
  Beta  occ. eigenvalues --   -0.19122  -0.18363  -0.17478  -0.16910
  Beta virt. eigenvalues --    0.12615   0.12786   0.14972   0.15497   0.16970
  Beta virt. eigenvalues --    0.17994   0.18624   0.18976   0.20029   0.21157
  Beta virt. eigenvalues --    0.23005   0.24387   0.24836   0.25861   0.26441

 Mulliken charges and spin densities:
               1          2
     1  N   -0.181589   0.192118
     2  N   -0.281762   0.162293
     3  C   -0.196273   0.311366
     4  C   -0.187087  -0.139438
     5  N   -0.260121   0.415018
     6  H    0.186865  -0.012613
     7  H    0.129890   0.004077
     8  H    0.379325   0.013472
     9  C    0.772452   0.000889
    10  O   -0.614372   0.032397
    11  O   -0.696024   0.019497
    12  H    0.353693  -0.000040
    13  O   -0.879046   0.001062
    14  H    0.474049  -0.000099
 Sum of Mulliken charges =  -1.00000   1.00000

 Dipole moment (field-independent basis, Debye):
    X=             -3.0912    Y=             -1.0353    Z=             -2.5192  Tot=              4.1199
 Quadrupole moment (field-independent basis, Debye-Ang):
   XX=            -69.0576   YY=            -79.0863   ZZ=            -55.7087
   XY=             -6.9487   XZ=             -3.0791   YZ=              2.8510

  Exact polarizability:  96.922   3.629  91.499   3.276  -5.674  55.357
 Approx polarizability: 102.109   2.024 110.322   4.786 -10.127  67.902

                      1                      2                      3
                      A                      A                      A
 Frequencies --     50.7426               100.0078               110.2275
 Red. masses --      4.6628                 5.3922                 7.6900
 Frc consts  --      0.0071                 0.0318                 0.0551
 IR Inten    --      2.8222                 0.8996                 6.2828

                      4                      5                      6
                      A                      A                      A
 Frequencies --    141.9027               201.3113               240.3894
 Red. masses --      8.2625                 4.9208                 2.1574
 Frc consts  --      0.0980                 0.1175                 0.0735
 IR Inten    --      7.1037                 8.1934                13.6389

                      7                      8                      9
                      A                      A                      A
 Frequencies --    262.9184               396.1128               431.0440
 Red. masses --      2.3292                 2.9161                 4.6744
 Frc consts  --      0.0949                 0.2696                 0.5117
 IR Inten    --     99.8048                 7.7066                13.5854

                     10                     11                     12
                      A                      A                      A
 Frequencies --    448.9628               551.1748               597.3167
 Red. masses --      1.4303                 7.7476                 4.2000
 Frc consts  --      0.1699                 1.3867                 0.8829
 IR Inten    --     65.8688                 3.6318                 6.0834

                     13                     14                     15
                      A                      A                      A
 Frequencies --    687.4608               780.6131               784.4404
 Red. masses --      1.2282                11.5651                 5.6597
 Frc consts  --      0.3420                 4.1521                 2.0519
 IR Inten    --     56.7676                43.3685               125.4470

                     16                     17                     18
                      A                      A                      A
 Frequencies --    818.4529               876.0237               926.8858
 Red. masses --      1.8913                 1.2699                 4.3134
 Frc consts  --      0.7464                 0.5742                 2.1833
 IR Inten    --    125.0261                10.5300                22.3701

                     19                     20                     21
                      A                      A                      A
 Frequencies --    954.8698               979.3857              1066.5937
 Red. masses --      1.2269                 2.9695                 1.4209
 Frc consts  --      0.6591                 1.6782                 0.9524
 IR Inten    --    253.4693               119.3770                76.9951

                     22                     23                     24
                      A                      A                      A
 Frequencies --   1095.2897              1202.9779              1236.3741
 Red. masses --      2.3556                 3.4363                 4.3030
 Frc consts  --      1.6650                 2.9299                 3.8754
 IR Inten    --     93.3370                51.6557                30.9572

                     25                     26                     27
                      A                      A                      A
 Frequencies --   1324.9598              1352.9022              1381.3509
 Red. masses --      7.5724                 5.9128                 2.0167
 Frc consts  --      7.8323                 6.3764                 2.2673
 IR Inten    --    287.4688               460.8830               127.2304

                     28                     29                     30
                      A                      A                      A
 Frequencies --   1495.7341              1534.9606              1667.7249
 Red. masses --      1.6065                 3.7092                 1.0767
 Frc consts  --      2.1176                 5.1491                 1.7644
 IR Inten    --      4.9506                 4.8639                99.5538

                     31                     32                     33
                      A                      A                      A
 Frequencies --   1798.2543              3095.1355              3270.4245
 Red. masses --     11.3039                 1.0765                 1.0944
 Frc consts  --     21.5368                 6.0761                 6.8965
 IR Inten    --    751.1441              1185.8107                18.3990

                     34                     35                     36
                      A                      A                      A
 Frequencies --   3347.5936              3468.9782              3953.2248
 Red. masses --      1.0981                 1.0816                 1.0656
 Frc consts  --      7.2505                 7.6685                 9.8120
 IR Inten    --     10.0696               380.4377                40.5133

 - Thermochemistry -
 -------------------
 Temperature   298.150 Kelvin.  Pressure   1.00000 Atm.
 Atom     1 has atomic number  7 and mass  14.00307

 Molecular mass:   131.03309 amu.
 Principal axes and moments of inertia in atomic units:
                           1         2         3
     Eigenvalues --   864.528051221.586211991.10770
           X            0.99601  -0.08921  -0.00352
           Y            0.08923   0.99600   0.00547
           Z            0.00302  -0.00576   0.99998
 This molecule is an asymmetric top.
 Rotational symmetry number  1.
 Warning -- assumption of classical behavior for rotation
           may cause significant error
 Rotational temperatures (Kelvin)      0.10019     0.07090     0.04350
 Rotational constants (GHZ):           2.08754     1.47738     0.90640
 Zero-point vibrational energy     255000.3 (Joules/Mol)
                                   60.94654 (Kcal/Mol)
 Warning -- explicit consideration of  12 degrees of freedom as
           vibrations may cause significant error
 Vibrational temperatures:     73.01   143.89   158.59   204.17   289.64
          (Kelvin)            345.87   378.28   569.92   620.18   645.96
                              793.02   859.41   989.10  1123.13  1128.63
                             1177.57  1260.40  1333.58  1373.84  1409.12
                             1534.59  1575.88  1730.82  1778.87  1906.32
                             1946.52  1987.46  2152.03  2208.47  2399.48
                             2587.29  4453.21  4705.41  4816.44  4991.09
                             5687.81

 Zero-point correction=                           0.097124 (Hartree/Particle)
 Thermal correction to Energy=                    0.106309
 Thermal correction to Enthalpy=                  0.107253
 Thermal correction to Gibbs Free Energy=         0.061512
 Sum of electronic and zero-point Energies=           -506.993961
 Sum of electronic and thermal Energies=              -506.984777
 Sum of electronic and thermal Enthalpies=            -506.983832
 Sum of electronic and thermal Free Energies=         -507.029573

                     E (Thermal)             CV                S
                      KCal/Mol        Cal/Mol-Kelvin    Cal/Mol-Kelvin
 Total                   66.710             31.740             96.269
 Electronic               0.000              0.000              1.377
 Translational            0.889              2.981             40.524
 Rotational               0.889              2.981             29.132
 Vibrational             64.932             25.778             25.235
 Vibration     1          0.595              1.977              4.788
 Vibration     2          0.604              1.949              3.454
 Vibration     3          0.606              1.941              3.265
 Vibration     4          0.615              1.911              2.778
 Vibration     5          0.638              1.838              2.121
 Vibration     6          0.657              1.779              1.800
 Vibration     7          0.670              1.741              1.642
 Vibration     8          0.763              1.478              0.977
 Vibration     9          0.792              1.403              0.855
 Vibration    10          0.808              1.363              0.799
 Vibration    11          0.906              1.137              0.542
 Vibration    12          0.955              1.037              0.454

                           ! Non-Optimized Parameters !
 Normal termination of Gaussian 16 at Sun Jun  4 07:15:09 2023.
