 Gaussian 16, Revision A.03,
 Gaussian 16:  ES64L-G16RevA.03 25-Dec-2016

 ----------------------------
 # opt freq 6-31+g(d,p) m062x
 ----------------------------

 ----------
 "Sketch 2"
 ----------
 Symbolic Z-matrix:
 Charge =  0 Multiplicity = 2

 SCF Done:  E(UM062X) =  -241.438133038     A.U. after   18 cycles
 SCF Done:  E(UM062X) =  -241.448992353     A.U. after   17 cycles
 SCF Done:  E(UM062X) =  -241.450105731     A.U. after   16 cycles
 SCF Done:  E(UM062X) =  -241.450603712     A.U. after   15 cycles
 SCF Done:  E(UM062X) =  -241.450610334     A.U. after   14 cycles
 SCF Done:  E(UM062X) =  -241.450619636     A.U. after   15 cycles
 SCF Done:  E(UM062X) =  -241.450631795     A.U. after   16 cycles
 SCF Done:  E(UM062X) =  -241.450651038     A.U. after   19 cycles
 SCF Done:  E(UM062X) =  -241.450691534     A.U. after   14 cycles
 SCF Done:  E(UM062X) =  -241.450737016     A.U. after   17 cycles
 SCF Done:  E(UM062X) =  -241.450946932     A.U. after   16 cycles
 SCF Done:  E(UM062X) =  -241.450945986     A.U. after   17 cycles
 SCF Done:  E(UM062X) =  -241.450978032     A.U. after   17 cycles
 SCF Done:  E(UM062X) =  -241.450980464     A.U. after   12 cycles
 Optimization completed.
    -- Stationary point found.
 Normal termination of Gaussian 16 at Sun Jul 23 00:54:09 2023.

 ----------------------------------------------------------------------
 #N Geom=AllCheck Guess=TCheck SCRF=Check GenChk UM062X/6-31+G(d,p) Fre
 q
 ----------------------------------------------------------------------

 Structure from the checkpoint file:  "/scratch/gongke2021/TZ-radical/Gau-24463.chk"
 ----------
 "Sketch 2"
 ----------
 Charge =  0 Multiplicity = 2

                         Standard orientation:
 ---------------------------------------------------------------------
 Center     Atomic      Atomic             Coordinates (Angstroms)
 Number     Number       Type             X           Y           Z
 ---------------------------------------------------------------------
      1          7           0       -0.502040   -1.053239   -0.000123
      2          7           0        0.905053   -0.783701   -0.000044
      3          6           0        1.018998    0.499762   -0.000004
      4          6           0       -0.321815    1.073374    0.000179
      5          7           0       -1.190369    0.043211   -0.000014
      6          1           0        1.971428    1.011784    0.000055
      7          1           0       -0.643032    2.105501    0.000168
 ---------------------------------------------------------------------

 SCF Done:  E(UM062X) =  -241.450980464     A.U. after    1 cycles

 The electronic state is 2-A.
 Alpha  occ. eigenvalues --  -14.87225 -14.82477 -14.81928 -10.66079 -10.63255
 Alpha  occ. eigenvalues --   -1.23115  -1.02223  -0.93232  -0.73033  -0.71229
 Alpha  occ. eigenvalues --   -0.63005  -0.57124  -0.55994  -0.44408  -0.39528
 Alpha  occ. eigenvalues --   -0.39317  -0.37012  -0.36943
 Alpha virt. eigenvalues --    0.00889   0.01355   0.02635   0.03044   0.04069
 Alpha virt. eigenvalues --    0.05768   0.07549   0.07656   0.09849   0.11856
 Alpha virt. eigenvalues --    0.13619   0.15388   0.17515   0.18175   0.19622

  Beta  occ. eigenvalues --  -14.86692 -14.82700 -14.81892 -10.65692 -10.63219
  Beta  occ. eigenvalues --   -1.21962  -1.02032  -0.90783  -0.72167  -0.70095
  Beta  occ. eigenvalues --   -0.62257  -0.55512  -0.52942  -0.43817  -0.39130
  Beta  occ. eigenvalues --   -0.38796  -0.36414
  Beta virt. eigenvalues --   -0.16218   0.00648   0.02772   0.03001   0.03865
  Beta virt. eigenvalues --    0.04816   0.06761   0.06897   0.07655   0.11179
  Beta virt. eigenvalues --    0.11813   0.13487   0.14875   0.17518   0.17801

 Mulliken charges and spin densities:
               1          2
     1  N    0.062656   0.467566
     2  N   -0.146407   0.047603
     3  C   -0.120125   0.066884
     4  C   -0.052679   0.644407
     5  N   -0.152791  -0.192934
     6  H    0.200710  -0.007022
     7  H    0.208636  -0.026505
 Sum of Mulliken charges =   0.00000   1.00000

 Dipole moment (field-independent basis, Debye):
    X=              1.4722    Y=              4.4039    Z=              0.0005  Tot=              4.6435
 Quadrupole moment (field-independent basis, Debye-Ang):
   XX=            -31.2195   YY=            -27.5598   ZZ=            -28.4038
   XY=              1.3819   XZ=             -0.0001   YZ=             -0.0001

  Exact polarizability:  43.915   0.421  47.133  -0.000   0.002  24.928
 Approx polarizability:  54.062   0.359  64.690   0.000   0.003  30.412

                      1                      2                      3
                      A                      A                      A
 Frequencies --    314.2691               534.1446               535.0862
 Red. masses --     11.6963                11.9515                 2.2454
 Frc consts  --      0.6806                 2.0090                 0.3788
 IR Inten    --      0.0684                43.3941                 1.9427

                      4                      5                      6
                      A                      A                      A
 Frequencies --    778.6141               859.9909               896.7149
 Red. masses --      1.4037                 6.9226                 1.4785
 Frc consts  --      0.5014                 3.0165                 0.7004
 IR Inten    --     11.4027                 5.4068                 4.8464

                      7                      8                      9
                      A                      A                      A
 Frequencies --    972.7214              1017.5472              1090.5063
 Red. masses --      7.2689                 1.8297                 5.8310
 Frc consts  --      4.0523                 1.1162                 4.0855
 IR Inten    --     30.9182                 5.4591                11.0388

                     10                     11                     12
                      A                      A                      A
 Frequencies --   1186.3448              1294.8549              1429.2533
 Red. masses --      1.8053                 2.0724                 3.5100
 Frc consts  --      1.4970                 2.0472                 4.2245
 IR Inten    --     14.6063                29.7587                 7.8699

                     13                     14                     15
                      A                      A                      A
 Frequencies --   1620.1623              3288.2103              3300.5508
 Red. masses --      7.7921                 1.0947                 1.1009
 Frc consts  --     12.0509                 6.9737                 7.0660
 IR Inten    --      2.9280                 0.5191                 0.0077

 - Thermochemistry -
 -------------------
 Temperature   298.150 Kelvin.  Pressure   1.00000 Atm.
 Atom     1 has atomic number  7 and mass  14.00307

 Molecular mass:    68.02487 amu.
 Principal axes and moments of inertia in atomic units:
                           1         2         3
     Eigenvalues --   165.22562 189.00382 354.22944
           X            0.99445   0.10520   0.00000
           Y           -0.10520   0.99445  -0.00011
           Z           -0.00001   0.00011   1.00000
 This molecule is an asymmetric top.
 Rotational symmetry number  1.
 Rotational temperatures (Kelvin)      0.52422     0.45827     0.24451
 Rotational constants (GHZ):          10.92289     9.54870     5.09484
 Zero-point vibrational energy     114356.8 (Joules/Mol)
                                   27.33194 (Kcal/Mol)
 Warning -- explicit consideration of   3 degrees of freedom as
           vibrations may cause significant error
 Vibrational temperatures:    452.16   768.51   769.87  1120.25  1237.34
          (Kelvin)           1290.17  1399.53  1464.02  1569.00  1706.89
                             1863.01  2056.38  2331.05  4731.00  4748.76

 Zero-point correction=                           0.043556 (Hartree/Particle)
 Thermal correction to Energy=                    0.047533
 Thermal correction to Enthalpy=                  0.048477
 Thermal correction to Gibbs Free Energy=         0.016529
 Sum of electronic and zero-point Energies=           -241.407424
 Sum of electronic and thermal Energies=              -241.403447
 Sum of electronic and thermal Enthalpies=            -241.402503
 Sum of electronic and thermal Free Energies=         -241.434451

                     E (Thermal)             CV                S
                      KCal/Mol        Cal/Mol-Kelvin    Cal/Mol-Kelvin
 Total                   29.827             13.267             67.240
 Electronic               0.000              0.000              1.377
 Translational            0.889              2.981             38.570
 Rotational               0.889              2.981             23.918
 Vibrational             28.050              7.305              3.375
 Vibration     1          0.702              1.646              1.340
 Vibration     2          0.889              1.174              0.578
 Vibration     3          0.890              1.172              0.576

 Optimization completed.
    -- Stationary point found.
 Normal termination of Gaussian 16 at Sun Jul 23 00:54:40 2023.
