 Gaussian 16, Revision A.03,
 Gaussian 16:  ES64L-G16RevA.03 25-Dec-2016

 ----------------------------
 # opt freq 6-31+g(d,p) m062x
 ----------------------------

 ----------
 "Sketch 2"
 ----------
 Symbolic Z-matrix:
 Charge = -1 Multiplicity = 1

 SCF Done:  E(RM062X) =  -241.573902491     A.U. after   13 cycles
 SCF Done:  E(RM062X) =  -241.581196081     A.U. after   12 cycles
 SCF Done:  E(RM062X) =  -241.584989207     A.U. after   12 cycles
 SCF Done:  E(RM062X) =  -241.585011738     A.U. after   10 cycles
 SCF Done:  E(RM062X) =  -241.585017925     A.U. after    9 cycles
 Optimization completed.
    -- Stationary point found.
 Normal termination of Gaussian 16 at Sat May  6 04:44:36 2023.

 ----------------------------------------------------------------------
 #N Geom=AllCheck Guess=TCheck SCRF=Check GenChk RM062X/6-31+G(d,p) Fre
 q
 ----------------------------------------------------------------------

 Structure from the checkpoint file:  "/scratch/gongke2021/TZ-/Gau-2841.chk"
 ----------
 "Sketch 2"
 ----------
 Charge = -1 Multiplicity = 1

                         Standard orientation:
 ---------------------------------------------------------------------
 Center     Atomic      Atomic             Coordinates (Angstroms)
 Number     Number       Type             X           Y           Z
 ---------------------------------------------------------------------
      1          7           0       -1.164011    0.017169   -0.000078
      2          7           0       -0.428097   -1.092046   -0.000020
      3          6           0        0.866559   -0.707971    0.000007
      4          6           0        0.887207    0.682376    0.000141
      5          7           0       -0.395731    1.103918   -0.000068
      6          1           0        1.675386   -1.427910    0.000026
      7          1           0        1.716883    1.378195    0.000253
 ---------------------------------------------------------------------

 SCF Done:  E(RM062X) =  -241.585017925     A.U. after    1 cycles

 The electronic state is 1-A.
 Alpha  occ. eigenvalues --  -14.58911 -14.56870 -14.56866 -10.36895 -10.36817
 Alpha  occ. eigenvalues --   -0.96712  -0.74844  -0.67049  -0.47757  -0.44923
 Alpha  occ. eigenvalues --   -0.37730  -0.30619  -0.30413  -0.20137  -0.13293
 Alpha  occ. eigenvalues --   -0.12423  -0.12383  -0.10000
 Alpha virt. eigenvalues --    0.15847   0.16173   0.19432   0.21211   0.21367
 Alpha virt. eigenvalues --    0.22127   0.23879   0.28002   0.28373   0.28456
 Alpha virt. eigenvalues --    0.31392   0.32786   0.34442   0.34490   0.38816

 Mulliken charges:
               1
     1  N   -0.118378
     2  N   -0.288292
     3  C   -0.245440
     4  C   -0.245322
     5  N   -0.288291
     6  H    0.092826
     7  H    0.092897
 Sum of Mulliken charges =  -1.00000

 Dipole moment (field-independent basis, Debye):
    X=              3.7647    Y=             -0.0545    Z=              0.0003  Tot=              3.7651
 Quadrupole moment (field-independent basis, Debye-Ang):
   XX=            -37.2158   YY=            -40.1368   ZZ=            -33.6715
   XY=             -0.0419   XZ=             -0.0002   YZ=              0.0003

  Exact polarizability:  58.116  -0.001  58.064   0.002   0.001  35.881
 Approx polarizability:  72.173   0.005  71.900   0.002   0.001  42.036

                      1                      2                      3
                      A                      A                      A
 Frequencies --    683.1447               750.1197               778.1890
 Red. masses --      4.7489                13.3820                 1.1822
 Frc consts  --      1.3058                 4.4364                 0.4218
 IR Inten    --      0.0004                 0.1098                69.2492

                      4                      5                      6
                      A                      A                      A
 Frequencies --    813.7138               971.1523               972.6020
 Red. masses --      1.2687                 7.8267                 2.6458
 Frc consts  --      0.4950                 4.3491                 1.4746
 IR Inten    --      0.0308                10.0286                 2.6443

                      7                      8                      9
                      A                      A                      A
 Frequencies --   1106.8831              1114.1219              1201.4294
 Red. masses --      1.8387                 1.8113                 4.5534
 Frc consts  --      1.3273                 1.3246                 3.8725
 IR Inten    --      7.3766                28.9838                 2.1385

                     10                     11                     12
                      A                      A                      A
 Frequencies --   1218.1584              1274.5881              1453.0964
 Red. masses --     10.4096                10.4243                 3.6764
 Frc consts  --      9.1011                 9.9778                 4.5737
 IR Inten    --      5.8226                 1.9517                15.8563

                     13                     14                     15
                      A                      A                      A
 Frequencies --   1485.7484              3237.5470              3262.2576
 Red. masses --      4.1185                 1.0873                 1.1038
 Frc consts  --      5.3565                 6.7150                 6.9212
 IR Inten    --      0.7164                28.6886                48.5153

 - Thermochemistry -
 -------------------
 Temperature   298.150 Kelvin.  Pressure   1.00000 Atm.
 Atom     1 has atomic number  7 and mass  14.00307

 Molecular mass:    68.02487 amu.
 Principal axes and moments of inertia in atomic units:
                           1         2         3
     Eigenvalues --   170.77183 176.19748 346.96931
           X            0.01868   0.99983  -0.00008
           Y            0.99983  -0.01868  -0.00001
           Z            0.00001   0.00008   1.00000
 This molecule is an asymmetric top.
 Rotational symmetry number  1.
 Rotational temperatures (Kelvin)      0.50719     0.49157     0.24963
 Rotational constants (GHZ):          10.56814    10.24272     5.20144
 Zero-point vibrational energy     121557.0 (Joules/Mol)
                                   29.05283 (Kcal/Mol)
 Vibrational temperatures:    982.89  1079.25  1119.64  1170.75  1397.27
          (Kelvin)           1399.36  1592.56  1602.97  1728.59  1752.66
                             1833.85  2090.68  2137.66  4658.11  4693.66

 Zero-point correction=                           0.046299 (Hartree/Particle)
 Thermal correction to Energy=                    0.049690
 Thermal correction to Enthalpy=                  0.050634
 Thermal correction to Gibbs Free Energy=         0.020275
 Sum of electronic and zero-point Energies=           -241.538719
 Sum of electronic and thermal Energies=              -241.535328
 Sum of electronic and thermal Enthalpies=            -241.534384
 Sum of electronic and thermal Free Energies=         -241.564743

                     E (Thermal)             CV                S
                      KCal/Mol        Cal/Mol-Kelvin    Cal/Mol-Kelvin
 Total                   31.181             10.961             63.897
 Electronic               0.000              0.000              0.000
 Translational            0.889              2.981             38.570
 Rotational               0.889              2.981             23.861
 Vibrational             29.404              5.000              1.467

 Optimization completed.
    -- Stationary point found.
 Normal termination of Gaussian 16 at Sat May  6 04:44:57 2023.
