 Gaussian 16, Revision A.03,
 Gaussian 16:  ES64L-G16RevA.03 25-Dec-2016

 ----------------------------
 # opt freq 6-31+g(d,p) m062x
 ----------------------------

 ----------
 "Sketch 2"
 ----------
 Symbolic Z-matrix:
 Charge = -1 Multiplicity = 2

 SCF Done:  E(UM062X) =  -188.496381104     A.U. after   14 cycles
 Optimization completed.
    -- Stationary point found.
 Normal termination of Gaussian 16 at Mon Jun  5 04:47:48 2023.

 ----------------------------------------------------------------------
 #N Geom=AllCheck Guess=TCheck SCRF=Check GenChk UM062X/6-31+G(d,p) Fre
 q
 ----------------------------------------------------------------------

 Structure from the checkpoint file:  "CO2-.chk"
 ----------
 "Sketch 2"
 ----------
 Charge = -1 Multiplicity = 2

                         Standard orientation:
 ---------------------------------------------------------------------
 Center     Atomic      Atomic             Coordinates (Angstroms)
 Number     Number       Type             X           Y           Z
 ---------------------------------------------------------------------
      1          6           0        0.000000    0.334702    0.000000
      2          8           0        1.145903   -0.125624    0.000000
      3          8           0       -1.145903   -0.125403    0.000000
 ---------------------------------------------------------------------

 SCF Done:  E(UM062X) =  -188.496381104     A.U. after    1 cycles

 The electronic state is 2-A'.
 Alpha  occ. eigenvalues --  -19.41879 -19.41876 -10.43362  -0.96881  -0.89166
 Alpha  occ. eigenvalues --   -0.38379  -0.30832  -0.29391  -0.28315  -0.14892
 Alpha  occ. eigenvalues --   -0.14094   0.00567
 Alpha virt. eigenvalues --    0.22929   0.23309   0.24515   0.24982   0.32163
 Alpha virt. eigenvalues --    0.39918   0.40635   0.42862   0.45875   0.47259
 Alpha virt. eigenvalues --    0.47331   0.48567   0.52683   0.66827   0.80425

  Beta  occ. eigenvalues --  -19.41400 -19.41397 -10.42806  -0.95054  -0.87156
  Beta  occ. eigenvalues --   -0.36369  -0.28745  -0.27108  -0.25325  -0.13642
  Beta  occ. eigenvalues --   -0.11869
  Beta virt. eigenvalues --    0.14554   0.18797   0.18996   0.20120   0.26599
  Beta virt. eigenvalues --    0.33546   0.36844   0.37605   0.39811   0.42853
  Beta virt. eigenvalues --    0.44826   0.45667   0.48057   0.51511   0.66792

 Mulliken charges and spin densities:
               1          2
     1  C    0.049673   0.857247
     2  O   -0.524884   0.071388
     3  O   -0.524789   0.071365
 Sum of Mulliken charges =  -1.00000   1.00000

 Dipole moment (field-independent basis, Debye):
    X=             -0.0006    Y=             -0.2958    Z=              0.0000  Tot=              0.2958
 Quadrupole moment (field-independent basis, Debye-Ang):
   XX=            -27.6799   YY=            -21.5356   ZZ=            -19.2418
   XY=              0.0006   XZ=              0.0000   YZ=              0.0000

  Exact polarizability:  39.290  -0.001  42.319  -0.000  -0.000  31.424
 Approx polarizability:  43.921  -0.002  29.933  -0.000  -0.000  24.577

                      1                      2                      3
                     A'                     A'                     A'
 Frequencies --    705.8802              1302.2609              1783.9013
 Red. masses --     13.9676                14.5813                12.9840
 Frc consts  --      4.1005                14.5694                24.3445
 IR Inten    --     48.8086               111.0416               899.0517

 - Thermochemistry -
 -------------------
 Temperature   298.150 Kelvin.  Pressure   1.00000 Atm.
 Atom     1 has atomic number  6 and mass  12.00000

 Molecular mass:    43.98983 amu.
 Principal axes and moments of inertia in atomic units:
                           1         2         3
     Eigenvalues --     6.60026 150.00488 156.60514
           X            1.00000   0.00010   0.00000
           Y           -0.00010   1.00000   0.00000
           Z           -0.00000   0.00000   1.00000
 This molecule is an asymmetric top.
 Rotational symmetry number  1.
 Rotational temperatures (Kelvin)     13.12280     0.57741     0.55307
 Rotational constants (GHZ):         273.43483    12.03122    11.52415
 Zero-point vibrational energy      22681.5 (Joules/Mol)
                                    5.42100 (Kcal/Mol)
 Vibrational temperatures:   1015.60  1873.66  2566.64
          (Kelvin)

 Zero-point correction=                           0.008639 (Hartree/Particle)
 Thermal correction to Energy=                    0.011594
 Thermal correction to Enthalpy=                  0.012539
 Thermal correction to Gibbs Free Energy=        -0.015330
 Sum of electronic and zero-point Energies=           -188.487742
 Sum of electronic and thermal Energies=              -188.484787
 Sum of electronic and thermal Enthalpies=            -188.483843
 Sum of electronic and thermal Free Energies=         -188.511712

                     E (Thermal)             CV                S
                      KCal/Mol        Cal/Mol-Kelvin    Cal/Mol-Kelvin
 Total                    7.276              6.953             58.655
 Electronic               0.000              0.000              1.377
 Translational            0.889              2.981             37.270
 Rotational               0.889              2.981             19.678
 Vibrational              5.498              0.992              0.330

 Optimization completed.
    -- Stationary point found.
 Normal termination of Gaussian 16 at Mon Jun  5 04:47:55 2023.
