 Gaussian 16, Revision A.03,
 Gaussian 16:  ES64L-G16RevA.03 25-Dec-2016

 ----------------------------
 # m062x/6-31+G(d,p) opt freq
 ----------------------------

 ---------
 structure
 ---------
 Symbolic Z-matrix:
 Charge =  0 Multiplicity = 1

 SCF Done:  E(RM062X) =  -188.266099105     A.U. after   11 cycles
 SCF Done:  E(RM062X) =  -188.372716004     A.U. after   10 cycles
 SCF Done:  E(RM062X) =  -188.507763462     A.U. after   10 cycles
 SCF Done:  E(RM062X) =  -188.516026235     A.U. after   10 cycles
 SCF Done:  E(RM062X) =  -188.516038939     A.U. after    8 cycles
 Optimization completed.
    -- Stationary point found.
 Normal termination of Gaussian 16 at Fri Mar 10 01:42:22 2023.

 ----------------------------------------------------------------------
 #N Geom=AllCheck Guess=TCheck SCRF=Check GenChk RM062X/6-31+G(d,p) Fre
 q
 ----------------------------------------------------------------------

 Structure from the checkpoint file:  "/scratch/gongke2021/co2/Gau-10842.chk"
 ---------
 structure
 ---------
 Charge =  0 Multiplicity = 1

                         Standard orientation:
 ---------------------------------------------------------------------
 Center     Atomic      Atomic             Coordinates (Angstroms)
 Number     Number       Type             X           Y           Z
 ---------------------------------------------------------------------
      1          6           0       -0.000000   -0.000000   -0.000002
      2          8           0        0.000000    0.000000    1.162795
      3          8           0       -0.000000   -0.000000   -1.162794
 ---------------------------------------------------------------------

 SCF Done:  E(RM062X) =  -188.516038939     A.U. after    1 cycles

 The electronic state is 1-SG.
 Alpha  occ. eigenvalues --  -19.73956 -19.73955 -10.75893  -1.30165  -1.25118
 Alpha  occ. eigenvalues --   -0.66469  -0.61234  -0.61099  -0.61099  -0.45117
 Alpha  occ. eigenvalues --   -0.45117
 Alpha virt. eigenvalues --   -0.00186   0.04751   0.04751   0.05387   0.07841
 Alpha virt. eigenvalues --    0.07841   0.16185   0.19655   0.20762   0.20762
 Alpha virt. eigenvalues --    0.25271   0.28220   0.28220   0.32058   0.38383

 Mulliken charges:
               1
     1  C    0.740248
     2  O   -0.370126
     3  O   -0.370122
 Sum of Mulliken charges =  -0.00000

 Dipole moment (field-independent basis, Debye):
    X=              0.0000    Y=             -0.0000    Z=             -0.0000  Tot=              0.0000
 Quadrupole moment (field-independent basis, Debye-Ang):
   XX=            -14.8512   YY=            -14.8512   ZZ=            -19.7026
   XY=              0.0000   XZ=             -0.0000   YZ=             -0.0000

  Exact polarizability:   8.970  -0.000   8.970  -0.000   0.000  25.513
 Approx polarizability:   9.702   0.000   9.702   0.000   0.000  36.825

                      1                      2                      3
                     PI                     PI                     SG
 Frequencies --    669.8719               669.8719              1411.2690
 Red. masses --     12.8774                12.8774                15.9949
 Frc consts  --      3.4046                 3.4046                18.7695
 IR Inten    --     38.1999                38.1999                 0.0000

                      4
                     SG
 Frequencies --   2460.5198
 Red. masses --     12.8774
 Frc consts  --     45.9337
 IR Inten    --    788.2142

 - Thermochemistry -
 -------------------
 Temperature   298.150 Kelvin.  Pressure   1.00000 Atm.
 Atom     1 has atomic number  6 and mass  12.00000

 Molecular mass:    43.98983 amu.
 Principal axes and moments of inertia in atomic units:
                           1         2         3
     Eigenvalues --     0.00000 154.45982 154.45982
           X            0.00000   0.95783  -0.28735
           Y            0.00000   0.28735   0.95783
           Z            1.00000  -0.00000  -0.00000
 This molecule is a prolate symmetric top.
 Rotational symmetry number  1.
 Rotational temperature (Kelvin)      0.56075
 Rotational constant (GHZ):          11.684212
 Zero-point vibrational energy      31171.9 (Joules/Mol)
                                    7.45026 (Kcal/Mol)
 Vibrational temperatures:    963.80   963.80  2030.50  3540.14
          (Kelvin)

 Zero-point correction=                           0.011873 (Hartree/Particle)
 Thermal correction to Energy=                    0.014491
 Thermal correction to Enthalpy=                  0.015435
 Thermal correction to Gibbs Free Energy=        -0.009478
 Sum of electronic and zero-point Energies=           -188.504166
 Sum of electronic and thermal Energies=              -188.501548
 Sum of electronic and thermal Enthalpies=            -188.500604
 Sum of electronic and thermal Free Energies=         -188.525517

                     E (Thermal)             CV                S
                      KCal/Mol        Cal/Mol-Kelvin    Cal/Mol-Kelvin
 Total                    9.093              6.848             52.434
 Electronic               0.000              0.000              0.000
 Translational            0.889              2.981             37.270
 Rotational               0.592              1.987             14.459
 Vibrational              7.612              1.880              0.705

 Optimization completed.
    -- Stationary point found.
 Normal termination of Gaussian 16 at Fri Mar 10 01:42:27 2023.
