 Gaussian 16, Revision A.03,
 Gaussian 16:  ES64L-G16RevA.03 25-Dec-2016

 ----------------------------
 # opt freq 6-31+g(d,p) m062x
 ----------------------------

 ----------
 "Sketch 2"
 ----------
 Symbolic Z-matrix:
 Charge =  1 Multiplicity = 1

 SCF Done:  E(RM062X) =  -188.633341833     A.U. after   13 cycles
 SCF Done:  E(RM062X) =  -188.681981743     A.U. after   12 cycles
 SCF Done:  E(RM062X) =  -188.716401205     A.U. after   12 cycles
 SCF Done:  E(RM062X) =  -188.725768272     A.U. after   12 cycles
 SCF Done:  E(RM062X) =  -188.726062892     A.U. after   10 cycles
 SCF Done:  E(RM062X) =  -188.726071130     A.U. after    9 cycles
 SCF Done:  E(RM062X) =  -188.726071734     A.U. after    7 cycles
 Optimization completed.
    -- Stationary point found.
 Normal termination of Gaussian 16 at Fri Oct 13 23:34:45 2023.

 ----------------------------------------------------------------------
 #N Geom=AllCheck Guess=TCheck SCRF=Check GenChk RM062X/6-31+G(d,p) Fre
 q
 ----------------------------------------------------------------------

 Structure from the checkpoint file:  "/scratch/gongke2021/1-H-Tz-HCOO-/Gau-4977.chk"
 ----------
 "Sketch 2"
 ----------
 Charge =  1 Multiplicity = 1

                         Standard orientation:
 ---------------------------------------------------------------------
 Center     Atomic      Atomic             Coordinates (Angstroms)
 Number     Number       Type             X           Y           Z
 ---------------------------------------------------------------------
      1          1           0        1.697991    0.681751   -0.000089
      2          6           0       -0.110537    0.011557   -0.000021
      3          8           0        1.105625   -0.110950    0.000039
      4          8           0       -1.234972    0.017064   -0.000012
 ---------------------------------------------------------------------

 SCF Done:  E(RM062X) =  -188.726071734     A.U. after    1 cycles

 The electronic state is 1-A.
 Alpha  occ. eigenvalues --  -20.08950 -20.06676 -11.08987  -1.63534  -1.58958
 Alpha  occ. eigenvalues --   -1.11181  -0.94171  -0.92352  -0.92164  -0.80663
 Alpha  occ. eigenvalues --   -0.77928
 Alpha virt. eigenvalues --   -0.27147  -0.24586  -0.23542  -0.14563  -0.11759
 Alpha virt. eigenvalues --   -0.11332  -0.07172  -0.04300  -0.01992   0.00053
 Alpha virt. eigenvalues --    0.05408   0.06189   0.09336   0.09404   0.11909

 Mulliken charges:
               1
     1  H    0.512931
     2  C    0.861380
     3  O   -0.332717
     4  O   -0.041594
 Sum of Mulliken charges =   1.00000

 Dipole moment (field-independent basis, Debye):
    X=              2.8795    Y=              1.7920    Z=             -0.0003  Tot=              3.3916
 Quadrupole moment (field-independent basis, Debye-Ang):
   XX=             -8.0380   YY=            -12.3149   ZZ=            -13.8648
   XY=              3.3607   XZ=             -0.0005   YZ=             -0.0002

  Exact polarizability:  23.136   0.305   8.675   0.000  -0.000   7.870
 Approx polarizability:  33.052  -0.268   9.894   0.000  -0.000   8.734

                      1                      2                      3
                      A                      A                      A
 Frequencies --    546.0008               597.3860               984.2327
 Red. masses --      3.7939                 8.7541                 1.4378
 Frc consts  --      0.6664                 1.8406                 0.8206
 IR Inten    --     43.1427                14.9809               284.4951

                      4                      5                      6
                      A                      A                      A
 Frequencies --   1303.6214              2546.6533              3572.3505
 Red. masses --      8.6541                12.1104                 1.0697
 Frc consts  --      8.6651                46.2751                 8.0432
 IR Inten    --     11.7041               444.7743               691.8829

 - Thermochemistry -
 -------------------
 Temperature   298.150 Kelvin.  Pressure   1.00000 Atm.
 Atom     1 has atomic number  1 and mass   1.00783

 Molecular mass:    44.99765 amu.
 Principal axes and moments of inertia in atomic units:
                           1         2         3
     Eigenvalues --     2.25586 167.71889 169.97475
           X            0.99968   0.02533  -0.00001
           Y           -0.02533   0.99968   0.00018
           Z            0.00002  -0.00018   1.00000
 This molecule is an asymmetric top.
 Rotational symmetry number  1.
 Rotational temperatures (Kelvin)     38.39510     0.51642     0.50957
 Rotational constants (GHZ):         800.02409    10.76051    10.61770
 Zero-point vibrational energy      57123.1 (Joules/Mol)
                                   13.65276 (Kcal/Mol)
 Warning -- explicit consideration of   2 degrees of freedom as
           vibrations may cause significant error
 Vibrational temperatures:    785.57   859.51  1416.09  1875.62  3664.07
          (Kelvin)           5139.82

 Zero-point correction=                           0.021757 (Hartree/Particle)
 Thermal correction to Energy=                    0.024993
 Thermal correction to Enthalpy=                  0.025938
 Thermal correction to Gibbs Free Energy=        -0.001275
 Sum of electronic and zero-point Energies=           -188.704315
 Sum of electronic and thermal Energies=              -188.701078
 Sum of electronic and thermal Enthalpies=            -188.700134
 Sum of electronic and thermal Free Energies=         -188.727347

                     E (Thermal)             CV                S
                      KCal/Mol        Cal/Mol-Kelvin    Cal/Mol-Kelvin
 Total                   15.684              8.690             57.275
 Electronic               0.000              0.000              0.000
 Translational            0.889              2.981             37.338
 Rotational               0.889              2.981             18.804
 Vibrational             13.906              2.728              1.133
 Vibration     1          0.901              1.148              0.553
 Vibration     2          0.955              1.037              0.454

 Optimization completed.
    -- Stationary point found.
 Normal termination of Gaussian 16 at Fri Oct 13 23:34:52 2023.
