 Gaussian 16, Revision A.03,
 Gaussian 16:  ES64L-G16RevA.03 25-Dec-2016

 ----------------------------
 # opt freq 6-31+g(d,p) m062x
 ----------------------------

 ----------
 "Sketch 2"
 ----------
 Symbolic Z-matrix:
 Charge =  0 Multiplicity = 2

 SCF Done:  E(UM062X) =  -189.023556160     A.U. after   15 cycles
 SCF Done:  E(UM062X) =  -189.028239514     A.U. after   14 cycles
 SCF Done:  E(UM062X) =  -189.028314641     A.U. after   12 cycles
 SCF Done:  E(UM062X) =  -189.028322256     A.U. after   12 cycles
 SCF Done:  E(UM062X) =  -189.028323135     A.U. after   11 cycles
 Optimization completed.
    -- Stationary point found.
 Normal termination of Gaussian 16 at Mon Nov 13 03:23:25 2023.

 ----------------------------------------------------------------------
 #N Geom=AllCheck Guess=TCheck SCRF=Check GenChk UM062X/6-31+G(d,p) Fre
 q
 ----------------------------------------------------------------------

 Structure from the checkpoint file:  "/scratch/gongke2021/1-H-Tz-HCOO-/Gau-9177.chk"
 ----------
 "Sketch 2"
 ----------
 Charge =  0 Multiplicity = 2

                         Standard orientation:
 ---------------------------------------------------------------------
 Center     Atomic      Atomic             Coordinates (Angstroms)
 Number     Number       Type             X           Y           Z
 ---------------------------------------------------------------------
      1          1           0        1.758379    0.460473   -0.000006
      2          6           0       -0.130135    0.388291    0.000001
      3          8           0        1.063994   -0.211996    0.000001
      4          8           0       -1.186190   -0.136782   -0.000001
 ---------------------------------------------------------------------

 SCF Done:  E(UM062X) =  -189.028323135     A.U. after    1 cycles

 The electronic state is 2-A.
 Alpha  occ. eigenvalues --  -19.74127 -19.70102 -10.70801  -1.27867  -1.20603
 Alpha  occ. eigenvalues --   -0.75009  -0.62384  -0.58705  -0.56409  -0.49380
 Alpha  occ. eigenvalues --   -0.44134  -0.30554
 Alpha virt. eigenvalues --    0.01657   0.03029   0.05299   0.06587   0.07203
 Alpha virt. eigenvalues --    0.15548   0.18011   0.20806   0.23025   0.25078
 Alpha virt. eigenvalues --    0.26296   0.27915   0.31490   0.31814   0.36386

  Beta  occ. eigenvalues --  -19.73744 -19.69482 -10.69967  -1.26062  -1.18668
  Beta  occ. eigenvalues --   -0.73432  -0.58519  -0.56067  -0.55245  -0.44639
  Beta  occ. eigenvalues --   -0.43617
  Beta virt. eigenvalues --   -0.07442   0.02350   0.03861   0.05466   0.06079
  Beta virt. eigenvalues --    0.08006   0.15397   0.17103   0.20129   0.22704
  Beta virt. eigenvalues --    0.23866   0.26158   0.27927   0.31472   0.32284

 Mulliken charges and spin densities:
               1          2
     1  H    0.394468  -0.005889
     2  C    0.366292   0.704525
     3  O   -0.425318   0.057482
     4  O   -0.335442   0.243882
 Sum of Mulliken charges =   0.00000   1.00000

 Dipole moment (field-independent basis, Debye):
    X=              2.8428    Y=              1.4597    Z=             -0.0000  Tot=              3.1957
 Quadrupole moment (field-independent basis, Debye-Ang):
   XX=            -15.1129   YY=            -17.2014   ZZ=            -16.5403
   XY=              2.1812   XZ=             -0.0000   YZ=             -0.0000

  Exact polarizability:  27.075   2.595  18.210  -0.000   0.000  13.630
 Approx polarizability:  32.383   4.153  18.966   0.000   0.000  14.429

                      1                      2                      3
                      A                      A                      A
 Frequencies --    535.6022               622.0611              1131.9700
 Red. masses --      1.2110                 6.8638                 3.5589
 Frc consts  --      0.2047                 1.5649                 2.6868
 IR Inten    --    106.2758                 4.1995                36.1110

                      4                      5                      6
                      A                      A                      A
 Frequencies --   1241.6080              1973.2388              3875.9517
 Red. masses --      1.5606                11.5832                 1.0669
 Frc consts  --      1.4175                26.5729                 9.4434
 IR Inten    --    309.9173               286.8022               163.1293

 - Thermochemistry -
 -------------------
 Temperature   298.150 Kelvin.  Pressure   1.00000 Atm.
 Atom     1 has atomic number  1 and mass   1.00783

 Molecular mass:    44.99765 amu.
 Principal axes and moments of inertia in atomic units:
                           1         2         3
     Eigenvalues --    10.78442 156.70314 167.48756
           X            0.99980   0.02009  -0.00000
           Y           -0.02009   0.99980  -0.00000
           Z            0.00000   0.00000   1.00000
 This molecule is an asymmetric top.
 Rotational symmetry number  1.
 Rotational temperatures (Kelvin)      8.03139     0.55273     0.51714
 Rotational constants (GHZ):         167.34706    11.51694    10.77537
 Zero-point vibrational energy      56107.4 (Joules/Mol)
                                   13.41000 (Kcal/Mol)
 Warning -- explicit consideration of   1 degrees of freedom as
           vibrations may cause significant error
 Vibrational temperatures:    770.61   895.01  1628.65  1786.40  2839.05
          (Kelvin)           5576.63

 Zero-point correction=                           0.021370 (Hartree/Particle)
 Thermal correction to Energy=                    0.024587
 Thermal correction to Enthalpy=                  0.025531
 Thermal correction to Gibbs Free Energy=        -0.003010
 Sum of electronic and zero-point Energies=           -189.006953
 Sum of electronic and thermal Energies=              -189.003736
 Sum of electronic and thermal Enthalpies=            -189.002792
 Sum of electronic and thermal Free Energies=         -189.031333

                     E (Thermal)             CV                S
                      KCal/Mol        Cal/Mol-Kelvin    Cal/Mol-Kelvin
 Total                   15.428              8.564             60.070
 Electronic               0.000              0.000              1.377
 Translational            0.889              2.981             37.338
 Rotational               0.889              2.981             20.276
 Vibrational             13.651              2.603              1.079
 Vibration     1          0.891              1.171              0.575

 Optimization completed.
    -- Stationary point found.
 Normal termination of Gaussian 16 at Mon Nov 13 03:23:31 2023.
