 Gaussian 16, Revision A.03,
 Gaussian 16:  ES64L-G16RevA.03 25-Dec-2016

 ----------------------------
 # opt freq 6-31+g(d,p) m062x
 ----------------------------

 ----------
 "Sketch 2"
 ----------
 Symbolic Z-matrix:
 Charge = -1 Multiplicity = 1

 SCF Done:  E(RM062X) =  -189.065517565     A.U. after   14 cycles
 SCF Done:  E(RM062X) =  -189.072491679     A.U. after   12 cycles
 SCF Done:  E(RM062X) =  -189.075732129     A.U. after   11 cycles
 SCF Done:  E(RM062X) =  -189.076264251     A.U. after   11 cycles
 SCF Done:  E(RM062X) =  -189.076419288     A.U. after   11 cycles
 SCF Done:  E(RM062X) =  -189.076421039     A.U. after    9 cycles
 Optimization completed.
    -- Stationary point found.
 Normal termination of Gaussian 16 at Sat May  6 04:44:07 2023.

 ----------------------------------------------------------------------
 #N Geom=AllCheck Guess=TCheck SCRF=Check GenChk RM062X/6-31+G(d,p) Fre
 q
 ----------------------------------------------------------------------

 Structure from the checkpoint file:  "/scratch/gongke2021/1-H-Tz-HCOO-/Gau-25617.chk"
 ----------
 "Sketch 2"
 ----------
 Charge = -1 Multiplicity = 1

                         Standard orientation:
 ---------------------------------------------------------------------
 Center     Atomic      Atomic             Coordinates (Angstroms)
 Number     Number       Type             X           Y           Z
 ---------------------------------------------------------------------
      1          1           0        1.739977    0.448765   -0.000048
      2          6           0       -0.188357    0.533905    0.000007
      3          8           0        1.073444   -0.246067    0.000005
      4          8           0       -1.149674   -0.210458   -0.000005
 ---------------------------------------------------------------------

 SCF Done:  E(RM062X) =  -189.076421039     A.U. after    1 cycles

 The electronic state is 1-A.
 Alpha  occ. eigenvalues --  -19.43534 -19.40555 -10.39976  -0.95357  -0.88065
 Alpha  occ. eigenvalues --   -0.41854  -0.32314  -0.27507  -0.25049  -0.18723
 Alpha  occ. eigenvalues --   -0.15417  -0.02717
 Alpha virt. eigenvalues --    0.20731   0.21831   0.22478   0.23763   0.31019
 Alpha virt. eigenvalues --    0.34716   0.37275   0.40369   0.41419   0.44679
 Alpha virt. eigenvalues --    0.44772   0.47327   0.49691   0.52883   0.55961

 Mulliken charges:
               1
     1  H    0.311233
     2  C   -0.314404
     3  O   -0.469441
     4  O   -0.527388
 Sum of Mulliken charges =  -1.00000

 Dipole moment (field-independent basis, Debye):
    X=              1.8826    Y=             -0.2966    Z=             -0.0001  Tot=              1.9058
 Quadrupole moment (field-independent basis, Debye-Ang):
   XX=            -23.9124   YY=            -25.8493   ZZ=            -21.1801
   XY=              1.7203   XZ=             -0.0002   YZ=             -0.0001

  Exact polarizability:  47.208   2.814  43.783  -0.000   0.000  35.762
 Approx polarizability:  48.600   4.163  37.833  -0.000  -0.000  31.847

                      1                      2                      3
                      A                      A                      A
 Frequencies --    516.5217               560.6764               716.5866
 Red. masses --      1.1615                11.3252                 5.3486
 Frc consts  --      0.1826                 2.0976                 1.6182
 IR Inten    --     74.6769               151.3419               138.6196

                      4                      5                      6
                      A                      A                      A
 Frequencies --   1143.6206              1730.2418              3898.3368
 Red. masses --      1.2588                11.6095                 1.0661
 Frc consts  --      0.9700                20.4776                 9.5457
 IR Inten    --    217.3887               443.3193                 8.3533

 - Thermochemistry -
 -------------------
 Temperature   298.150 Kelvin.  Pressure   1.00000 Atm.
 Atom     1 has atomic number  1 and mass   1.00783

 Molecular mass:    44.99765 amu.
 Principal axes and moments of inertia in atomic units:
                           1         2         3
     Eigenvalues --    18.85370 153.55332 172.40702
           X            0.99978   0.02099  -0.00000
           Y           -0.02099   0.99978  -0.00000
           Z            0.00000   0.00000   1.00000
 This molecule is an asymmetric top.
 Rotational symmetry number  1.
 Rotational temperatures (Kelvin)      4.59400     0.56406     0.50238
 Rotational constants (GHZ):          95.72344    11.75319    10.46791
 Zero-point vibrational energy      51236.0 (Joules/Mol)
                                   12.24569 (Kcal/Mol)
 Warning -- explicit consideration of   2 degrees of freedom as
           vibrations may cause significant error
 Vibrational temperatures:    743.16   806.69  1031.01  1645.42  2489.43
          (Kelvin)           5608.84

 Zero-point correction=                           0.019515 (Hartree/Particle)
 Thermal correction to Energy=                    0.022871
 Thermal correction to Enthalpy=                  0.023816
 Thermal correction to Gibbs Free Energy=        -0.004531
 Sum of electronic and zero-point Energies=           -189.056906
 Sum of electronic and thermal Energies=              -189.053550
 Sum of electronic and thermal Enthalpies=            -189.052605
 Sum of electronic and thermal Free Energies=         -189.080952

                     E (Thermal)             CV                S
                      KCal/Mol        Cal/Mol-Kelvin    Cal/Mol-Kelvin
 Total                   14.352              9.367             59.661
 Electronic               0.000              0.000              0.000
 Translational            0.889              2.981             37.338
 Rotational               0.889              2.981             20.840
 Vibrational             12.575              3.405              1.484
 Vibration     1          0.872              1.213              0.618
 Vibration     2          0.916              1.116              0.522

 Optimization completed.
    -- Stationary point found.
 Normal termination of Gaussian 16 at Sat May  6 04:44:14 2023.
