 Gaussian 16, Revision A.03,
 Gaussian 16:  ES64L-G16RevA.03 25-Dec-2016

 -----------------------------
 # opt freq 6-31++g(d,p) m062x
 -----------------------------

 ----------
 "Sketch 1"
 ----------
 Symbolic Z-matrix:
 Charge =  0 Multiplicity = 1

 SCF Done:  E(RM062X) =  -189.556671084     A.U. after   13 cycles
 SCF Done:  E(RM062X) =  -189.632561043     A.U. after   12 cycles
 SCF Done:  E(RM062X) =  -189.675495500     A.U. after   12 cycles
 SCF Done:  E(RM062X) =  -189.689786189     A.U. after   11 cycles
 SCF Done:  E(RM062X) =  -189.692654601     A.U. after   11 cycles
 SCF Done:  E(RM062X) =  -189.693679873     A.U. after   11 cycles
 SCF Done:  E(RM062X) =  -189.683135718     A.U. after   12 cycles
 SCF Done:  E(RM062X) =  -189.693777663     A.U. after   10 cycles
 SCF Done:  E(RM062X) =  -189.693492886     A.U. after   11 cycles
 SCF Done:  E(RM062X) =  -189.693792042     A.U. after    9 cycles
 SCF Done:  E(RM062X) =  -189.693792822     A.U. after    9 cycles
 Optimization completed.
    -- Stationary point found.
 Normal termination of Gaussian 16 at Thu Mar  9 12:40:02 2023.

 ----------------------------------------------------------------------
 #N Geom=AllCheck Guess=TCheck SCRF=Check GenChk RM062X/6-31++G(d,p) Fr
 eq
 ----------------------------------------------------------------------

 Structure from the checkpoint file:  "/scratch/gongke2021/HCOOH/Gau-9007.chk"
 ----------
 "Sketch 1"
 ----------
 Charge =  0 Multiplicity = 1

                         Standard orientation:
 ---------------------------------------------------------------------
 Center     Atomic      Atomic             Coordinates (Angstroms)
 Number     Number       Type             X           Y           Z
 ---------------------------------------------------------------------
      1          6           0       -0.132899    0.401762   -0.000083
      2          8           0       -1.131117   -0.265569    0.000038
      3          8           0        1.112946   -0.090662    0.000073
      4          1           0        1.050877   -1.059594   -0.000361
      5          1           0       -0.108108    1.498871   -0.000033
 ---------------------------------------------------------------------

 SCF Done:  E(RM062X) =  -189.693792822     A.U. after    1 cycles

 The electronic state is 1-A.
 Alpha  occ. eigenvalues --  -19.71353 -19.66205 -10.70335  -1.25627  -1.16255
 Alpha  occ. eigenvalues --   -0.76661  -0.61356  -0.59029  -0.54427  -0.49473
 Alpha  occ. eigenvalues --   -0.41364  -0.37856
 Alpha virt. eigenvalues --    0.00037   0.01364   0.02534   0.05320   0.06612
 Alpha virt. eigenvalues --    0.08203   0.12884   0.17627   0.19199   0.21083
 Alpha virt. eigenvalues --    0.21513   0.25666   0.27314   0.28317   0.29899

 Mulliken charges:
               1
     1  C    0.325082
     2  O   -0.430901
     3  O   -0.414324
     4  H    0.382397
     5  H    0.137746
 Sum of Mulliken charges =  -0.00000

 Dipole moment (field-independent basis, Debye):
    X=              1.4865    Y=              0.2129    Z=             -0.0010  Tot=              1.5017
 Quadrupole moment (field-independent basis, Debye-Ang):
   XX=            -21.7065   YY=            -13.6114   ZZ=            -17.1850
   XY=             -2.9613   XZ=             -0.0009   YZ=              0.0010

  Exact polarizability:  24.918   1.233  21.240  -0.000   0.000  12.512
 Approx polarizability:  29.495   3.130  22.970  -0.001   0.000  13.961

                      1                      2                      3
                      A                      A                      A
 Frequencies --    638.2041               683.0963              1070.7087
 Red. masses --      3.3707                 1.2489                 1.5833
 Frc consts  --      0.8089                 0.3434                 1.0695
 IR Inten    --     53.5368               171.4307                 1.4210

                      4                      5                      6
                      A                      A                      A
 Frequencies --   1170.9602              1314.1947              1414.4007
 Red. masses --      2.4852                 2.0946                 1.1475
 Frc consts  --      2.0077                 2.1315                 1.3526
 IR Inten    --    259.8714                37.3746                 6.0425

                      7                      8                      9
                      A                      A                      A
 Frequencies --   1882.9739              3126.8452              3812.6093
 Red. masses --      8.7135                 1.0934                 1.0644
 Frc consts  --     18.2025                 6.2988                 9.1158
 IR Inten    --    424.7755                39.0413                85.9559

 - Thermochemistry -
 -------------------
 Temperature   298.150 Kelvin.  Pressure   1.00000 Atm.
 Atom     1 has atomic number  6 and mass  12.00000

 Molecular mass:    46.00548 amu.
 Principal axes and moments of inertia in atomic units:
                           1         2         3
     Eigenvalues --    23.36597 148.69579 172.06176
           X            0.99936  -0.03580  -0.00001
           Y            0.03580   0.99936   0.00005
           Z            0.00001  -0.00005   1.00000
 This molecule is an asymmetric top.
 Rotational symmetry number  1.
 Rotational temperatures (Kelvin)      3.70684     0.58249     0.50339
 Rotational constants (GHZ):          77.23802    12.13714    10.48892
 Zero-point vibrational energy      90401.8 (Joules/Mol)
                                   21.60654 (Kcal/Mol)
 Vibrational temperatures:    918.23   982.82  1540.51  1684.75  1890.83
          (Kelvin)           2035.01  2709.18  4498.83  5485.49

 Zero-point correction=                           0.034432 (Hartree/Particle)
 Thermal correction to Energy=                    0.037590
 Thermal correction to Enthalpy=                  0.038534
 Thermal correction to Gibbs Free Energy=         0.010359
 Sum of electronic and zero-point Energies=           -189.659361
 Sum of electronic and thermal Energies=              -189.656203
 Sum of electronic and thermal Enthalpies=            -189.655259
 Sum of electronic and thermal Free Energies=         -189.683434

                     E (Thermal)             CV                S
                      KCal/Mol        Cal/Mol-Kelvin    Cal/Mol-Kelvin
 Total                   23.588              8.567             59.299
 Electronic               0.000              0.000              0.000
 Translational            0.889              2.981             37.404
 Rotational               0.889              2.981             21.019
 Vibrational             21.811              2.605              0.877

 Optimization completed.
    -- Stationary point found.
 Normal termination of Gaussian 16 at Thu Mar  9 12:40:10 2023.
