 Gaussian 16, Revision A.03,
 Gaussian 16:  ES64L-G16RevA.03 25-Dec-2016

 ----------------------------
 # opt freq 6-31+g(d,p) m062x
 ----------------------------

 -------------------
 Title Card Required
 -------------------
 Symbolic Z-matrix:
 Charge =  0 Multiplicity = 2

 SCF Done:  E(UM062X) =  -431.118136148     A.U. after   24 cycles
 SCF Done:  E(UM062X) =  -431.153503853     A.U. after   18 cycles
 SCF Done:  E(UM062X) =  -431.189852055     A.U. after   17 cycles
 SCF Done:  E(UM062X) =  -431.195460845     A.U. after   16 cycles
 SCF Done:  E(UM062X) =  -431.198459952     A.U. after   16 cycles
 SCF Done:  E(UM062X) =  -431.198423566     A.U. after   15 cycles
 SCF Done:  E(UM062X) =  -431.197562874     A.U. after   16 cycles
 SCF Done:  E(UM062X) =  -431.197277260     A.U. after   15 cycles
 SCF Done:  E(UM062X) =  -431.198627873     A.U. after   12 cycles
 SCF Done:  E(UM062X) =  -431.199006860     A.U. after   14 cycles
 SCF Done:  E(UM062X) =  -431.199419147     A.U. after   16 cycles
 SCF Done:  E(UM062X) =  -431.199700319     A.U. after   16 cycles
 SCF Done:  E(UM062X) =  -431.200116316     A.U. after   16 cycles
 SCF Done:  E(UM062X) =  -431.200869962     A.U. after   16 cycles
 SCF Done:  E(UM062X) =  -431.201121445     A.U. after   15 cycles
 SCF Done:  E(UM062X) =  -431.201125932     A.U. after   14 cycles
 SCF Done:  E(UM062X) =  -431.201148388     A.U. after   15 cycles
 SCF Done:  E(UM062X) =  -431.201150460     A.U. after   13 cycles
 SCF Done:  E(UM062X) =  -431.201150688     A.U. after   11 cycles
 Optimization completed.
    -- Stationary point found.
 Normal termination of Gaussian 16 at Mon Nov 13 02:21:03 2023.

 ----------------------------------------------------------------------
 #N Geom=AllCheck Guess=TCheck SCRF=Check GenChk UM062X/6-31+G(d,p) Fre
 q
 ----------------------------------------------------------------------

 Structure from the checkpoint file:  "/scratch/gongke2021/1-H-Tz-RC/Gau-17508.chk"
 -------------------
 Title Card Required
 -------------------
 Charge =  0 Multiplicity = 2

                         Standard orientation:
 ---------------------------------------------------------------------
 Center     Atomic      Atomic             Coordinates (Angstroms)
 Number     Number       Type             X           Y           Z
 ---------------------------------------------------------------------
      1          7           0       -0.006215    0.005302   -0.086386
      2          7           0        0.809126    1.114838    0.071990
      3          6           0        2.098726    0.598403    0.023842
      4          6           0        1.979793   -0.769670    0.011912
      5          7           0        0.689402   -1.163493   -0.031721
      6          1           0        2.960589    1.242552    0.073913
      7          1           0        2.767960   -1.506392    0.044172
      8          1           0        0.502860    1.933898   -0.446645
      9          6           0       -1.386781    0.107200    0.006647
     10          8           0       -1.997367   -1.078156    0.021617
     11          8           0       -1.939517    1.179049    0.024170
     12          1           0       -1.332963   -1.789327    0.030669
 ---------------------------------------------------------------------

 SCF Done:  E(UM062X) =  -431.201150688     A.U. after    1 cycles

 The electronic state is 2-A.
 Alpha  occ. eigenvalues --  -19.70336 -19.64326 -14.89368 -14.86675 -14.82053
 Alpha  occ. eigenvalues --  -10.72965 -10.61677 -10.60947  -1.27674  -1.22035
 Alpha  occ. eigenvalues --   -1.16376  -1.04395  -0.97694  -0.80626  -0.74329
 Alpha  occ. eigenvalues --   -0.72996  -0.70733  -0.62381  -0.59502  -0.56710
 Alpha  occ. eigenvalues --   -0.54684  -0.52916  -0.52296  -0.49488  -0.43024
 Alpha  occ. eigenvalues --   -0.41982  -0.41325  -0.38547  -0.37619  -0.21900
 Alpha virt. eigenvalues --    0.00108   0.01971   0.02679   0.03416   0.04377
 Alpha virt. eigenvalues --    0.05078   0.06245   0.07203   0.08084   0.08348
 Alpha virt. eigenvalues --    0.09432   0.10222   0.11095   0.13069   0.14036

  Beta  occ. eigenvalues --  -19.70320 -19.64182 -14.89086 -14.86273 -14.81468
  Beta  occ. eigenvalues --  -10.72956 -10.61452 -10.61052  -1.27082  -1.21333
  Beta  occ. eigenvalues --   -1.16045  -1.02881  -0.96733  -0.79531  -0.73775
  Beta  occ. eigenvalues --   -0.72225  -0.70484  -0.60690  -0.58456  -0.56191
  Beta  occ. eigenvalues --   -0.54223  -0.52572  -0.50966  -0.49262  -0.40647
  Beta  occ. eigenvalues --   -0.40413  -0.38340  -0.37629  -0.34968
  Beta virt. eigenvalues --   -0.04817   0.00067   0.02018   0.02681   0.04209
  Beta virt. eigenvalues --    0.04877   0.05079   0.06197   0.07165   0.07907
  Beta virt. eigenvalues --    0.09438   0.09770   0.10555   0.11033   0.12918

 Mulliken charges and spin densities:
               1          2
     1  N   -0.139944   0.097022
     2  N   -0.263728   0.174645
     3  C   -0.146233   0.335661
     4  C   -0.145288  -0.150088
     5  N   -0.220086   0.439248
     6  H    0.197501  -0.013348
     7  H    0.187660   0.003661
     8  H    0.357932   0.009994
     9  C    0.723899   0.025910
    10  O   -0.470242   0.007660
    11  O   -0.489431   0.071145
    12  H    0.407961  -0.001512
 Sum of Mulliken charges =  -0.00000   1.00000

 Dipole moment (field-independent basis, Debye):
    X=              4.8511    Y=             -0.0332    Z=             -0.6822  Tot=              4.8990
 Quadrupole moment (field-independent basis, Debye-Ang):
   XX=            -47.7459   YY=            -42.6718   ZZ=            -47.3474
   XY=              5.2557   XZ=              0.0885   YZ=             -2.0902

  Exact polarizability:  87.615  -1.859  70.031  -0.109  -0.011  37.538
 Approx polarizability:  93.094  -2.634  93.534  -0.137   0.495  46.783

                      1                      2                      3
                      A                      A                      A
 Frequencies --     65.6658               151.3395               224.7768
 Red. masses --      6.4091                 6.6209                 5.8733
 Frc consts  --      0.0163                 0.0893                 0.1748
 IR Inten    --      0.3806                11.0456                16.1542

                      4                      5                      6
                      A                      A                      A
 Frequencies --    386.9595               444.1306               539.7732
 Red. masses --      3.9052                 7.0682                 2.2640
 Frc consts  --      0.3445                 0.8214                 0.3886
 IR Inten    --     10.7652                 1.4630                87.9890

                      7                      8                      9
                      A                      A                      A
 Frequencies --    560.9682               579.2831               617.3928
 Red. masses --      1.1328                 4.2651                 2.4235
 Frc consts  --      0.2100                 0.8433                 0.5443
 IR Inten    --    126.7003                15.1058                55.3027

                     10                     11                     12
                      A                      A                      A
 Frequencies --    686.3628               720.0731               749.9426
 Red. masses --      1.3042                10.5483                 7.0087
 Frc consts  --      0.3620                 3.2224                 2.3224
 IR Inten    --     54.2376                22.8770                10.5941

                     13                     14                     15
                      A                      A                      A
 Frequencies --    903.1746               924.9775               946.5347
 Red. masses --      1.2773                 4.0557                 5.8385
 Frc consts  --      0.6139                 2.0445                 3.0820
 IR Inten    --      7.7098                27.9591                 3.5178

                     16                     17                     18
                      A                      A                      A
 Frequencies --   1089.8244              1117.5871              1192.8014
 Red. masses --      1.6987                 1.3873                 3.5943
 Frc consts  --      1.1887                 1.0209                 3.0130
 IR Inten    --     72.8755                 0.5861                40.6380

                     19                     20                     21
                      A                      A                      A
 Frequencies --   1215.3184              1301.6771              1314.7055
 Red. masses --      2.4505                 1.6996                10.2055
 Frc consts  --      2.1324                 1.6967                10.3930
 IR Inten    --      4.7472                65.6780                 3.4518

                     22                     23                     24
                      A                      A                      A
 Frequencies --   1379.0542              1444.5956              1501.1761
 Red. masses --      2.0441                 2.2324                 4.8092
 Frc consts  --      2.2904                 2.7449                 6.3854
 IR Inten    --    223.4395               149.6944               479.6898

                     25                     26                     27
                      A                      A                      A
 Frequencies --   1529.4658              1888.6604              3307.5498
 Red. masses --      4.0582                10.3180                 1.0943
 Frc consts  --      5.5932                21.6846                 7.0537
 IR Inten    --      5.1602               616.0176                 2.6756

                     28                     29                     30
                      A                      A                      A
 Frequencies --   3335.9107              3569.5031              3756.4846
 Red. masses --      1.1026                 1.0800                 1.0654
 Frc consts  --      7.2292                 8.1076                 8.8578
 IR Inten    --      4.2795                73.0686               108.7031

 - Thermochemistry -
 -------------------
 Temperature   298.150 Kelvin.  Pressure   1.00000 Atm.
 Atom     1 has atomic number  7 and mass  14.00307

 Molecular mass:   114.03035 amu.
 Principal axes and moments of inertia in atomic units:
                           1         2         3
     Eigenvalues --   356.937261005.718521359.67170
           X            0.99988   0.01563   0.00013
           Y           -0.01562   0.99984  -0.00894
           Z           -0.00027   0.00893   0.99996
 This molecule is an asymmetric top.
 Rotational symmetry number  1.
 Rotational temperatures (Kelvin)      0.24266     0.08612     0.06370
 Rotational constants (GHZ):           5.05619     1.79448     1.32734
 Zero-point vibrational energy     223974.8 (Joules/Mol)
                                   53.53127 (Kcal/Mol)
 Warning -- explicit consideration of   9 degrees of freedom as
           vibrations may cause significant error
 Vibrational temperatures:     94.48   217.74   323.40   556.75   639.00
          (Kelvin)            776.61   807.11   833.46   888.29   987.52
                             1036.02  1079.00  1299.47  1330.84  1361.85
                             1568.01  1607.96  1716.18  1748.57  1872.82
                             1891.57  1984.15  2078.45  2159.86  2200.56
                             2717.36  4758.83  4799.63  5135.72  5404.74

 Zero-point correction=                           0.085308 (Hartree/Particle)
 Thermal correction to Energy=                    0.091992
 Thermal correction to Enthalpy=                  0.092936
 Thermal correction to Gibbs Free Energy=         0.053312
 Sum of electronic and zero-point Energies=           -431.115843
 Sum of electronic and thermal Energies=              -431.109158
 Sum of electronic and thermal Enthalpies=            -431.108214
 Sum of electronic and thermal Free Energies=         -431.147839

                     E (Thermal)             CV                S
                      KCal/Mol        Cal/Mol-Kelvin    Cal/Mol-Kelvin
 Total                   57.726             24.255             83.397
 Electronic               0.000              0.000              1.377
 Translational            0.889              2.981             40.109
 Rotational               0.889              2.981             27.681
 Vibrational             55.949             18.294             14.230
 Vibration     1          0.597              1.971              4.279
 Vibration     2          0.619              1.901              2.655
 Vibration     3          0.649              1.803              1.920
 Vibration     4          0.755              1.498              1.012
 Vibration     5          0.804              1.374              0.814
 Vibration     6          0.895              1.162              0.566
 Vibration     7          0.917              1.116              0.522
 Vibration     8          0.936              1.076              0.487
 Vibration     9          0.977              0.995              0.421

 Optimization completed.
    -- Stationary point found.
 Normal termination of Gaussian 16 at Mon Nov 13 02:22:01 2023.
