 Gaussian 16, Revision C.01,
 Gaussian 16:  ES64L-G16RevC.01  3-Jul-2019

 ----------------------------
 # opt freq 6-31+g(d,p) m062x
 ----------------------------

 ----------
 "Sketch 3"
 ----------
 Symbolic Z-matrix:
 Charge = -1 Multiplicity = 1

 SCF Done:  E(RM062X) =  -75.7588782010     A.U. after   13 cycles
 SCF Done:  E(RM062X) =  -75.7588835751     A.U. after    8 cycles
 Optimization completed.
    -- Stationary point found.
 Normal termination of Gaussian 16 at Fri Dec  8 07:31:38 2023.

 ----------------------------------------------------------------------
 #N Geom=AllCheck Guess=TCheck SCRF=Check GenChk RM062X/6-31+G(d,p) Fre
 q
 ----------------------------------------------------------------------

 Structure from the checkpoint file:  "/home/gau/soft/scratch/Gau-96024.chk"
 ----------
 "Sketch 3"
 ----------
 Charge = -1 Multiplicity = 1

                         Standard orientation:
 ---------------------------------------------------------------------
 Center     Atomic      Atomic             Coordinates (Angstroms)
 Number     Number       Type             X           Y           Z
 ---------------------------------------------------------------------
      1          8           0        0.000000    0.000000    0.107398
      2          1           0        0.000000    0.000000   -0.859184
 ---------------------------------------------------------------------

 SCF Done:  E(RM062X) =  -75.7588835751     A.U. after    1 cycles

 The electronic state is 1-SG.
 Alpha  occ. eigenvalues --  -19.27864  -0.69826  -0.15436  -0.01655  -0.01655
 Alpha virt. eigenvalues --    0.34322   0.41701   0.43330   0.43330   0.54128
 Alpha virt. eigenvalues --    1.32953   1.53461   1.53839   1.53839   1.58697
 Alpha virt. eigenvalues --    1.97745   1.97745   2.23415   2.23415   2.80129

 Mulliken charges:
               1
     1  O   -1.234991
     2  H    0.234991
 Sum of Mulliken charges =  -1.00000

 Dipole moment (field-independent basis, Debye):
    X=              0.0000    Y=              0.0000    Z=             -1.8722  Tot=              1.8722
 Quadrupole moment (field-independent basis, Debye-Ang):
   XX=            -10.1612   YY=            -10.1612   ZZ=             -7.7771
   XY=              0.0000   XZ=              0.0000   YZ=              0.0000

  Exact polarizability:      12.181       0.000      12.181      -0.000      -0.000      10.478
 Approx polarizability:       8.894      -0.000       8.894      -0.000      -0.000       9.973

                      1
                     SG
 Frequencies --   3821.4143
 Red. masses --      1.0671
 Frc consts  --      9.1812
 IR Inten    --     82.8809

 - Thermochemistry -
 -------------------
 Temperature   298.150 Kelvin.  Pressure   1.00000 Atm.
 Atom     1 has atomic number  8 and mass  15.99491

 Molecular mass:    17.00274 amu.
 Principal axes and moments of inertia in atomic units:
                           1         2         3
     Eigenvalues --     0.00000   3.16318   3.16318
           X            0.00000  -0.00000   1.00000
           Y            0.00000   1.00000   0.00000
           Z            1.00000   0.00000   0.00000
 This molecule is a prolate symmetric top.
 Rotational symmetry number  1.
 Rotational temperature (Kelvin)     27.38195
 Rotational constant (GHZ):         570.547170
 Zero-point vibrational energy      22857.1 (Joules/Mol)
                                    5.46299 (Kcal/Mol)
 Vibrational temperatures:   5498.16
          (Kelvin)

 Zero-point correction=                           0.008706 (Hartree/Particle)
 Thermal correction to Energy=                    0.011066
 Thermal correction to Enthalpy=                  0.012010
 Thermal correction to Gibbs Free Energy=        -0.007550
 Sum of electronic and zero-point Energies=            -75.750178
 Sum of electronic and thermal Energies=               -75.747817
 Sum of electronic and thermal Enthalpies=             -75.746873
 Sum of electronic and thermal Free Energies=          -75.766434

                     E (Thermal)             CV                S
                      KCal/Mol        Cal/Mol-Kelvin    Cal/Mol-Kelvin
 Total                    6.944              4.968             41.169
 Electronic               0.000              0.000              0.000
 Translational            0.889              2.981             34.437
 Rotational               0.592              1.987              6.732
 Vibrational              5.463              0.000              0.000

 Optimization completed.
    -- Stationary point found.
 Normal termination of Gaussian 16 at Fri Dec  8 07:31:40 2023.
