 Gaussian 16, Revision C.01,
 Gaussian 16:  ES64L-G16RevC.01  3-Jul-2019

 ----------------------------
 # opt freq 6-31+g(d,p) m062x
 ----------------------------

 ----------
 "Sketch 3"
 ----------
 Symbolic Z-matrix:
 Charge =  0 Multiplicity = 2

 SCF Done:  E(UM062X) =  -75.7017444643     A.U. after   14 cycles
 SCF Done:  E(UM062X) =  -75.7017506207     A.U. after    8 cycles
 Optimization completed.
    -- Stationary point found.
 Normal termination of Gaussian 16 at Fri Dec  8 07:31:50 2023.

 ----------------------------------------------------------------------
 #N Geom=AllCheck Guess=TCheck SCRF=Check GenChk UM062X/6-31+G(d,p) Fre
 q
 ----------------------------------------------------------------------

 Structure from the checkpoint file:  "/home/gau/soft/scratch/Gau-98419.chk"
 ----------
 "Sketch 3"
 ----------
 Charge =  0 Multiplicity = 2

                         Standard orientation:
 ---------------------------------------------------------------------
 Center     Atomic      Atomic             Coordinates (Angstroms)
 Number     Number       Type             X           Y           Z
 ---------------------------------------------------------------------
      1          8           0        0.000000    0.000000    0.108414
      2          1           0        0.000000    0.000000   -0.867311
 ---------------------------------------------------------------------

 SCF Done:  E(UM062X) =  -75.7017506207     A.U. after    1 cycles

 Unable to determine electronic state:  an orbital has unidentified symmetry.
 Alpha  occ. eigenvalues --  -19.72282  -1.14653  -0.56493  -0.50303  -0.43864
 Alpha virt. eigenvalues --    0.07938   0.17125   0.17127   0.17714   0.24962
 Alpha virt. eigenvalues --    0.97575   1.12076   1.16884   1.17930   1.23764
 Alpha virt. eigenvalues --    1.56667   1.59382   1.79998   1.80136   2.39537

  Beta  occ. eigenvalues --  -19.70603  -1.06468  -0.53249  -0.40235
  Beta virt. eigenvalues --   -0.10687   0.07573   0.17077   0.18196   0.18295
  Beta virt. eigenvalues --    0.25068   0.99365   1.18358   1.18831   1.19861
  Beta virt. eigenvalues --    1.24462   1.60778   1.60805   1.85033   1.86749

 Mulliken charges and spin densities:
               1          2
     1  O   -0.355755   1.029131
     2  H    0.355755  -0.029131
 Sum of Mulliken charges =  -0.00000   1.00000

 Dipole moment (field-independent basis, Debye):
    X=              0.0000    Y=              0.0000    Z=             -1.8888  Tot=              1.8888
 Quadrupole moment (field-independent basis, Debye-Ang):
   XX=             -5.5419   YY=             -6.8905   ZZ=             -4.6557
   XY=              0.0000   XZ=              0.0000   YZ=              0.0000

  Exact polarizability:       3.584       0.000       4.566       0.000      -0.000       6.632
 Approx polarizability:       3.325      -0.000       3.970      -0.000      -0.000       6.721

                      1
                     SG
 Frequencies --   3779.9227
 Red. masses --      1.0671
 Frc consts  --      8.9829
 IR Inten    --     19.5432

 - Thermochemistry -
 -------------------
 Temperature   298.150 Kelvin.  Pressure   1.00000 Atm.
 Atom     1 has atomic number  8 and mass  15.99491

 Molecular mass:    17.00274 amu.
 Principal axes and moments of inertia in atomic units:
                           1         2         3
     Eigenvalues --     0.00000   3.22330   3.22330
           X            0.00000  -0.00000   1.00000
           Y            0.00000   1.00000   0.00000
           Z            1.00000   0.00000   0.00000
 This molecule is a prolate symmetric top.
 Rotational symmetry number  1.
 Rotational temperature (Kelvin)     26.87122
 Rotational constant (GHZ):         559.905417
 Zero-point vibrational energy      22609.0 (Joules/Mol)
                                    5.40367 (Kcal/Mol)
 Vibrational temperatures:   5438.47
          (Kelvin)

 Zero-point correction=                           0.008611 (Hartree/Particle)
 Thermal correction to Energy=                    0.010972
 Thermal correction to Enthalpy=                  0.011916
 Thermal correction to Gibbs Free Energy=        -0.008317
 Sum of electronic and zero-point Energies=            -75.693139
 Sum of electronic and thermal Energies=               -75.690779
 Sum of electronic and thermal Enthalpies=             -75.689835
 Sum of electronic and thermal Free Energies=          -75.710067

                     E (Thermal)             CV                S
                      KCal/Mol        Cal/Mol-Kelvin    Cal/Mol-Kelvin
 Total                    6.885              4.968             42.584
 Electronic               0.000              0.000              1.377
 Translational            0.889              2.981             34.437
 Rotational               0.592              1.987              6.769
 Vibrational              5.404              0.000              0.000

 Optimization completed.
    -- Stationary point found.
 Normal termination of Gaussian 16 at Fri Dec  8 07:31:52 2023.
