 Gaussian 16, Revision A.03,
 Gaussian 16:  ES64L-G16RevA.03 25-Dec-2016

 -----------------------------------------------------
 # opt freq 6-31+g(d,p) scrf=(smd,solvent=water) m062x
 -----------------------------------------------------

 -------------------
 Title Card Required
 -------------------
 Symbolic Z-matrix:
 Charge = -1 Multiplicity = 2

 SCF Done:  E(UM062X) =  -446.783511964     A.U. after   19 cycles
 SCF Done:  E(UM062X) =  -446.798225370     A.U. after   16 cycles
 SCF Done:  E(UM062X) =  -446.800250852     A.U. after   15 cycles
 SCF Done:  E(UM062X) =  -446.800344294     A.U. after   12 cycles
 SCF Done:  E(UM062X) =  -446.800356174     A.U. after   12 cycles
 SCF Done:  E(UM062X) =  -446.800357529     A.U. after   11 cycles
 SCF Done:  E(UM062X) =  -446.800357489     A.U. after   11 cycles
 Optimization completed.
    -- Stationary point found.
 Normal termination of Gaussian 16 at Sun Nov  5 06:30:37 2023.

 ----------------------------------------------------------------------
 #N Geom=AllCheck Guess=TCheck SCRF=Check GenChk UM062X/6-31+G(d,p) Fre
 q
 ----------------------------------------------------------------------

 Structure from the checkpoint file:  "/scratch/gongke2021/sidanzuo-PC/Gau-9101.chk"
 -------------------
 Title Card Required
 -------------------
 Charge = -1 Multiplicity = 2

                         Standard orientation:
 ---------------------------------------------------------------------
 Center     Atomic      Atomic             Coordinates (Angstroms)
 Number     Number       Type             X           Y           Z
 ---------------------------------------------------------------------
      1          7           0       -0.740589    1.113777   -0.000385
      2          7           0       -0.027926   -0.063808   -0.000453
      3          7           0       -0.833918   -1.189045   -0.000172
      4          7           0       -2.087033   -0.686850   -0.000006
      5          6           0       -1.986016    0.638882    0.000003
      6          6           0        1.323607   -0.110939   -0.000566
      7          8           0        1.981960   -1.156917    0.000600
      8          8           0        1.938991    1.095421    0.000634
      9          1           0        1.278005    1.811201    0.000527
     10          1           0       -2.844888    1.294582    0.000101
 ---------------------------------------------------------------------

 SCF Done:  E(UM062X) =  -446.800357489     A.U. after    1 cycles

 The electronic state is 2-A.
 Alpha  occ. eigenvalues --  -19.68949 -19.63003 -14.86269 -14.80094 -14.78502
 Alpha  occ. eigenvalues --  -14.77296 -10.70794 -10.59395  -1.25153  -1.20196
 Alpha  occ. eigenvalues --   -1.13773  -1.03016  -0.97366  -0.80892  -0.70801
 Alpha  occ. eigenvalues --   -0.69270  -0.64493  -0.58637  -0.55181  -0.51843
 Alpha  occ. eigenvalues --   -0.51008  -0.49382  -0.44184  -0.40940  -0.38604
 Alpha  occ. eigenvalues --   -0.38229  -0.36958  -0.35990  -0.35719  -0.17634
 Alpha virt. eigenvalues --    0.02207   0.04415   0.04659   0.05055   0.06696
 Alpha virt. eigenvalues --    0.06866   0.06875   0.09254   0.10310   0.10626
 Alpha virt. eigenvalues --    0.10836   0.15542   0.15661   0.16700   0.18596

  Beta  occ. eigenvalues --  -19.68893 -19.62792 -14.86212 -14.79419 -14.78150
  Beta  occ. eigenvalues --  -14.77161 -10.70684 -10.59436  -1.24564  -1.19489
  Beta  occ. eigenvalues --   -1.13254  -1.01970  -0.96258  -0.79619  -0.70349
  Beta  occ. eigenvalues --   -0.68897  -0.63670  -0.56842  -0.54720  -0.51514
  Beta  occ. eigenvalues --   -0.49324  -0.49138  -0.43112  -0.39374  -0.37925
  Beta  occ. eigenvalues --   -0.36066  -0.35144  -0.34905  -0.32182
  Beta virt. eigenvalues --   -0.00813   0.02039   0.04307   0.04695   0.04846
  Beta virt. eigenvalues --    0.06617   0.06733   0.07689   0.10402   0.10725
  Beta virt. eigenvalues --    0.11134   0.12280   0.15168   0.15571   0.16610

 Mulliken charges and spin densities:
               1          2
     1  N   -0.511528   0.250839
     2  N    0.012354  -0.017900
     3  N   -0.212175   0.445676
     4  N   -0.445145   0.105654
     5  C   -0.000217  -0.046366
     6  C    0.744905   0.148498
     7  O   -0.681055   0.097822
     8  O   -0.557790   0.016741
     9  H    0.442164  -0.001325
    10  H    0.208488   0.000360
 Sum of Mulliken charges =  -1.00000   1.00000

 Dipole moment (field-independent basis, Debye):
    X=             -2.0647    Y=              6.9704    Z=             -0.0029  Tot=              7.2698
 Quadrupole moment (field-independent basis, Debye-Ang):
   XX=            -67.5840   YY=            -57.2187   ZZ=            -47.9542
   XY=             -1.3891   XZ=             -0.0083   YZ=              0.0035

  Exact polarizability: 137.052  -5.471 100.738   0.006  -0.006  51.454
 Approx polarizability: 101.740  -2.393  89.753  -0.001  -0.006  46.979

                      1                      2                      3
                      A                      A                      A
 Frequencies --    133.3503               143.0102               242.2408
 Red. masses --      9.2963                 6.9600                 7.6364
 Frc consts  --      0.0974                 0.0839                 0.2640
 IR Inten    --      0.6737                 3.5345                12.6806

                      4                      5                      6
                      A                      A                      A
 Frequencies --    412.9014               445.7757               477.3594
 Red. masses --      1.1448                 8.2221                13.7534
 Frc consts  --      0.1150                 0.9626                 1.8465
 IR Inten    --    221.6225                 4.3796                19.0428

                      7                      8                      9
                      A                      A                      A
 Frequencies --    561.6073               645.2358               655.9505
 Red. masses --      8.8157                 5.5584                 8.8952
 Frc consts  --      1.6382                 1.3635                 2.2550
 IR Inten    --     38.5287                34.8825                 3.5930

                     10                     11                     12
                      A                      A                      A
 Frequencies --    725.9450               909.3914               920.4048
 Red. masses --     10.0040                 9.9454                 1.3114
 Frc consts  --      3.1062                 4.8459                 0.6546
 IR Inten    --     13.0077                53.5924                24.0945

                     13                     14                     15
                      A                      A                      A
 Frequencies --    977.7416              1068.2973              1107.7104
 Red. masses --      8.9180                 6.3805                 6.1771
 Frc consts  --      5.0231                 4.2903                 4.4657
 IR Inten    --      7.1085               505.4968                57.1808

                     16                     17                     18
                      A                      A                      A
 Frequencies --   1195.3121              1271.6074              1292.5230
 Red. masses --      2.7755                 1.3337                 3.4460
 Frc consts  --      2.3364                 1.2706                 3.3918
 IR Inten    --     87.9526               351.9636                30.6354

                     19                     20                     21
                      A                      A                      A
 Frequencies --   1329.4209              1457.6400              1507.7184
 Red. masses --      7.2592                12.3797                 3.8983
 Frc consts  --      7.5590                15.4975                 5.2212
 IR Inten    --    149.6762               481.1120                37.0326

                     22                     23                     24
                      A                      A                      A
 Frequencies --   1714.1045              3308.9921              3737.3273
 Red. masses --      8.4249                 1.0968                 1.0657
 Frc consts  --     14.5845                 7.0759                 8.7701
 IR Inten    --   1780.1095                 1.0982               214.0831

 - Thermochemistry -
 -------------------
 Temperature   298.150 Kelvin.  Pressure   1.00000 Atm.
 Atom     1 has atomic number  7 and mass  14.00307

 Molecular mass:   114.01778 amu.
 Principal axes and moments of inertia in atomic units:
                           1         2         3
     Eigenvalues --   337.03823 998.243011335.28111
           X            0.99997  -0.00759  -0.00013
           Y            0.00759   0.99997   0.00001
           Z            0.00013  -0.00001   1.00000
 This molecule is an asymmetric top.
 Rotational symmetry number  1.
 Rotational temperatures (Kelvin)      0.25699     0.08677     0.06487
 Rotational constants (GHZ):           5.35471     1.80792     1.35158
 Zero-point vibrational energy     156959.4 (Joules/Mol)
                                   37.51420 (Kcal/Mol)
 Warning -- explicit consideration of   7 degrees of freedom as
           vibrations may cause significant error
 Vibrational temperatures:    191.86   205.76   348.53   594.07   641.37
          (Kelvin)            686.81   808.03   928.35   943.77  1044.47
                             1308.41  1324.26  1406.75  1537.04  1593.75
                             1719.79  1829.56  1859.65  1912.74  2097.22
                             2169.27  2466.21  4760.90  5377.18

 Zero-point correction=                           0.059783 (Hartree/Particle)
 Thermal correction to Energy=                    0.066059
 Thermal correction to Enthalpy=                  0.067003
 Thermal correction to Gibbs Free Energy=         0.028439
 Sum of electronic and zero-point Energies=           -446.740575
 Sum of electronic and thermal Energies=              -446.734299
 Sum of electronic and thermal Enthalpies=            -446.733355
 Sum of electronic and thermal Free Energies=         -446.771919

                     E (Thermal)             CV                S
                      KCal/Mol        Cal/Mol-Kelvin    Cal/Mol-Kelvin
 Total                   41.452             22.223             81.165
 Electronic               0.000              0.000              1.377
 Translational            0.889              2.981             40.109
 Rotational               0.889              2.981             27.599
 Vibrational             39.675             16.262             12.080
 Vibration     1          0.613              1.920              2.897
 Vibration     2          0.616              1.910              2.763
 Vibration     3          0.658              1.776              1.786
 Vibration     4          0.777              1.442              0.916
 Vibration     5          0.805              1.370              0.809
 Vibration     6          0.834              1.300              0.717
 Vibration     7          0.917              1.114              0.521

 Optimization completed.
    -- Stationary point found.
 Normal termination of Gaussian 16 at Sun Nov  5 06:32:11 2023.
