 Gaussian 16, Revision C.01,
 Gaussian 16:  ES64L-G16RevC.01  3-Jul-2019

 ----------------------------------------------------------------------
 # opt=(calcfc,ts,noeigentest) freq 6-31+g(d,p) integral=grid=ultrafine
  m062x scrf=(SMD,solvent=water)
 ----------------------------------------------------------------------

 -------------------
 Title Card Required
 -------------------
 Symbolic Z-matrix:
 Charge =  0 Multiplicity = 1

 SCF Done:  E(RM062X) =  -446.509480534     A.U. after   16 cycles
 SCF Done:  E(RM062X) =  -446.564695639     A.U. after   14 cycles
 SCF Done:  E(RM062X) =  -446.601811658     A.U. after   14 cycles
 SCF Done:  E(RM062X) =  -446.628232063     A.U. after   13 cycles
 SCF Done:  E(RM062X) =  -446.646190792     A.U. after   13 cycles
 SCF Done:  E(RM062X) =  -446.654280109     A.U. after   13 cycles
 SCF Done:  E(RM062X) =  -446.647621638     A.U. after   13 cycles
 SCF Done:  E(RM062X) =  -446.650884562     A.U. after   14 cycles
 SCF Done:  E(RM062X) =  -446.653869958     A.U. after   13 cycles
 SCF Done:  E(RM062X) =  -446.656626416     A.U. after   13 cycles
 SCF Done:  E(RM062X) =  -446.657221550     A.U. after   11 cycles
 SCF Done:  E(RM062X) =  -446.655635355     A.U. after   12 cycles
 SCF Done:  E(RM062X) =  -446.657040973     A.U. after   12 cycles
 SCF Done:  E(RM062X) =  -446.657112249     A.U. after   11 cycles
 SCF Done:  E(RM062X) =  -446.657115106     A.U. after   12 cycles
 SCF Done:  E(RM062X) =  -446.657237521     A.U. after   12 cycles
 SCF Done:  E(RM062X) =  -446.657216566     A.U. after   11 cycles
 SCF Done:  E(RM062X) =  -446.657245681     A.U. after   11 cycles
 SCF Done:  E(RM062X) =  -446.657246189     A.U. after    9 cycles
 Optimization completed.
    -- Stationary point found.
 Normal termination of Gaussian 16 at Sat Oct 28 00:13:17 2023.

 ----------------------------------------------------------------------
 #N Geom=AllCheck Guess=TCheck SCRF=Check GenChk RM062X/6-31+G(d,p) Fre
 q
 ----------------------------------------------------------------------

 Structure from the checkpoint file:  "/home/Tinker/g16/scratch/Gau-1725550.chk"
 -------------------
 Title Card Required
 -------------------
 Charge =  0 Multiplicity = 1

                         Standard orientation:
 ---------------------------------------------------------------------
 Center     Atomic      Atomic             Coordinates (Angstroms)
 Number     Number       Type             X           Y           Z
 ---------------------------------------------------------------------
      1          7           0       -0.647591    0.954378   -0.000316
      2          7           0       -0.045824   -0.216293   -0.000470
      3          7           0       -0.876601   -1.206371   -0.000029
      4          7           0       -2.082809   -0.681327    0.000278
      5          6           0       -1.933621    0.658803    0.000137
      6          6           0        1.481529   -0.044537   -0.000029
      7          8           0        2.166658   -1.032147    0.000104
      8          8           0        1.664171    1.203836    0.000241
      9          1           0        0.371863    1.608593    0.000019
     10          1           0       -2.736165    1.379589    0.000326
 ---------------------------------------------------------------------

 SCF Done:  E(RM062X) =  -446.657246189     A.U. after    1 cycles

 The electronic state is 1-A.
 Alpha  occ. eigenvalues --  -19.68570 -19.67374 -14.93313 -14.89385 -14.88875
 Alpha  occ. eigenvalues --  -14.84067 -10.75703 -10.66392  -1.34247  -1.25316
 Alpha  occ. eigenvalues --   -1.17990  -1.10878  -1.04140  -0.83296  -0.80152
 Alpha  occ. eigenvalues --   -0.72480  -0.68089  -0.64639  -0.59164  -0.57802
 Alpha  occ. eigenvalues --   -0.55476  -0.55434  -0.49251  -0.43674  -0.43467
 Alpha  occ. eigenvalues --   -0.40872  -0.40620  -0.40303  -0.39813
 Alpha virt. eigenvalues --   -0.04370   0.01496   0.02666   0.03837   0.04315
 Alpha virt. eigenvalues --    0.04916   0.05929   0.06459   0.08090   0.08568
 Alpha virt. eigenvalues --    0.09432   0.10381   0.13947   0.14160   0.14871

 Mulliken charges:
               1
     1  N   -0.241017
     2  N    0.015867
     3  N    0.003663
     4  N   -0.299924
     5  C    0.016996
     6  C    0.845387
     7  O   -0.537022
     8  O   -0.607889
     9  H    0.519927
    10  H    0.284012
 Sum of Mulliken charges =  -0.00000

 Dipole moment (field-independent basis, Debye):
    X=             -5.7719    Y=              5.5137    Z=             -0.0010  Tot=              7.9822
 Quadrupole moment (field-independent basis, Debye-Ang):
   XX=            -53.9262   YY=            -47.9357   ZZ=            -43.4564
   XY=             -6.7930   XZ=             -0.0017   YZ=              0.0011

  Exact polarizability:      96.730      -4.143      82.383      -0.006      -0.001      39.913
 Approx polarizability:      85.509      -3.093      83.599      -0.008      -0.002      39.422

 ******    1 imaginary frequencies (negative Signs) ******

                      1                      2                      3
                      A                      A                      A
 Frequencies --  -1395.9307               145.3263               157.3936
 Red. masses --      1.0923                 9.9170                10.2165
 Frc consts  --      1.2541                 0.1234                 0.1491
 IR Inten    --   2823.6032                 3.7841                 4.0752

                      4                      5                      6
                      A                      A                      A
 Frequencies --    273.5582               543.1836               605.3906
 Red. masses --     11.9089                 8.6359                11.4810
 Frc consts  --      0.5251                 1.5012                 2.4791
 IR Inten    --     41.8296                29.3076               204.1958

                      7                      8                      9
                      A                      A                      A
 Frequencies --    672.5503               713.8272               760.1098
 Red. masses --      5.6108                 7.3592                13.9256
 Frc consts  --      1.4953                 2.2094                 4.7404
 IR Inten    --     31.1417                 9.5628               613.7863

                     10                     11                     12
                      A                      A                      A
 Frequencies --    761.6205               939.3152              1019.6991
 Red. masses --     12.1052                 1.3761                 7.6275
 Frc consts  --      4.1371                 0.7154                 4.6728
 IR Inten    --     28.5176                23.6687                 9.0647

                     13                     14                     15
                      A                      A                      A
 Frequencies --   1103.0401              1122.3671              1166.1577
 Red. masses --      4.9554                 1.0656                 2.1232
 Frc consts  --      3.5523                 0.7909                 1.7012
 IR Inten    --     52.5715               164.3866               144.4219

                     16                     17                     18
                      A                      A                      A
 Frequencies --   1203.0694              1282.8030              1302.2933
 Red. masses --      5.4843                 8.3227                 9.8777
 Frc consts  --      4.6768                 8.0693                 9.8702
 IR Inten    --    621.0245               103.9312               187.2025

                     19                     20                     21
                      A                      A                      A
 Frequencies --   1424.6731              1447.3192              1548.8163
 Red. masses --      7.3731                 7.2909                 6.3426
 Frc consts  --      8.8171                 8.9982                 8.9643
 IR Inten    --     14.5225                85.8884                20.0515

                     22                     23                     24
                      A                      A                      A
 Frequencies --   1897.7569              2104.5875              3343.7382
 Red. masses --     11.1194                 1.0649                 1.1044
 Frc consts  --     23.5945                 2.7789                 7.2749
 IR Inten    --   1224.8557               695.0548                43.6316

 - Thermochemistry -
 -------------------
 Temperature   298.150 Kelvin.  Pressure   1.00000 Atm.
 Atom     1 has atomic number  7 and mass  14.00307

 Molecular mass:   114.01778 amu.
 Principal axes and moments of inertia in atomic units:
                           1         2         3
     Eigenvalues --   321.87388 984.514651306.38848
           X            0.99985  -0.01735  -0.00000
           Y            0.01735   0.99985   0.00001
           Z            0.00000  -0.00001   1.00000
 This molecule is an asymmetric top.
 Rotational symmetry number  1.
 Rotational temperatures (Kelvin)      0.26909     0.08798     0.06630
 Rotational constants (GHZ):           5.60698     1.83313     1.38147
    1 imaginary frequencies ignored.
 Zero-point vibrational energy     152754.7 (Joules/Mol)
                                   36.50926 (Kcal/Mol)
 Warning -- explicit consideration of   5 degrees of freedom as
           vibrations may cause significant error
 Vibrational temperatures:    209.09   226.45   393.59   781.52   871.02
          (Kelvin)            967.65  1027.04  1093.63  1095.80  1351.47
                             1467.12  1587.03  1614.84  1677.84  1730.95
                             1845.67  1873.71  2049.79  2082.37  2228.40
                             2730.45  3028.03  4810.89

 Zero-point correction=                           0.058181 (Hartree/Particle)
 Thermal correction to Energy=                    0.063719
 Thermal correction to Enthalpy=                  0.064663
 Thermal correction to Gibbs Free Energy=         0.028012
 Sum of electronic and zero-point Energies=           -446.599065
 Sum of electronic and thermal Energies=              -446.593528
 Sum of electronic and thermal Enthalpies=            -446.592583
 Sum of electronic and thermal Free Energies=         -446.629234

                     E (Thermal)             CV                S
                      KCal/Mol        Cal/Mol-Kelvin    Cal/Mol-Kelvin
 Total                   39.984             19.135             77.138
 Electronic               0.000              0.000              0.000
 Translational            0.889              2.981             40.109
 Rotational               0.889              2.981             27.517
 Vibrational             38.207             13.173              9.512
 Vibration     1          0.617              1.908              2.733
 Vibration     2          0.621              1.894              2.581
 Vibration     3          0.676              1.722              1.574
 Vibration     4          0.898              1.155              0.558
 Vibration     5          0.964              1.020              0.440

 Optimization completed.
    -- Stationary point found.
 Normal termination of Gaussian 16 at Sat Oct 28 00:14:16 2023.
