 Gaussian 16, Revision A.03,
 Gaussian 16:  ES64L-G16RevA.03 25-Dec-2016

 -----------------------------------------------------
 # opt freq 6-31+g(d,p) m062x scrf=(SMD,solvent=water)
 -----------------------------------------------------

 --
 TS
 --
 Symbolic Z-matrix:
 Charge = -1 Multiplicity = 2

 SCF Done:  E(UM062X) =  -583.569738959     A.U. after   17 cycles
 SCF Done:  E(UM062X) =  -583.585095930     A.U. after   15 cycles
 SCF Done:  E(UM062X) =  -583.592908316     A.U. after   15 cycles
 SCF Done:  E(UM062X) =  -583.594218111     A.U. after   14 cycles
 SCF Done:  E(UM062X) =  -583.595381249     A.U. after   15 cycles
 SCF Done:  E(UM062X) =  -583.595713179     A.U. after   14 cycles
 SCF Done:  E(UM062X) =  -583.596098056     A.U. after   14 cycles
 SCF Done:  E(UM062X) =  -583.596383734     A.U. after   14 cycles
 SCF Done:  E(UM062X) =  -583.596768644     A.U. after   14 cycles
 SCF Done:  E(UM062X) =  -583.596889702     A.U. after   13 cycles
 SCF Done:  E(UM062X) =  -583.597404126     A.U. after   13 cycles
 SCF Done:  E(UM062X) =  -583.597419795     A.U. after   12 cycles
 SCF Done:  E(UM062X) =  -583.597425068     A.U. after   13 cycles
 SCF Done:  E(UM062X) =  -583.597427293     A.U. after   11 cycles
 SCF Done:  E(UM062X) =  -583.597427783     A.U. after   10 cycles
 SCF Done:  E(UM062X) =  -583.597428356     A.U. after   11 cycles
 SCF Done:  E(UM062X) =  -583.597428419     A.U. after   10 cycles
 SCF Done:  E(UM062X) =  -583.597429044     A.U. after   10 cycles
 SCF Done:  E(UM062X) =  -583.597429334     A.U. after    9 cycles
 Optimization completed.
    -- Stationary point found.
 Normal termination of Gaussian 16 at Fri Jul  7 01:04:53 2023.

 ----------------------------------------------------------------------
 #N Geom=AllCheck Guess=TCheck SCRF=Check GenChk UM062X/6-31+G(d,p) Fre
 q
 ----------------------------------------------------------------------

 Structure from the checkpoint file:  "/scratch/gongke2021/PC-2-N/Gau-4260.chk"
 --
 TS
 --
 Charge = -1 Multiplicity = 2

                         Standard orientation:
 ---------------------------------------------------------------------
 Center     Atomic      Atomic             Coordinates (Angstroms)
 Number     Number       Type             X           Y           Z
 ---------------------------------------------------------------------
      1          7           0       -0.935944    0.186599   -0.030034
      2          7           0       -0.057424   -0.850430   -0.292865
      3          6           0       -0.894913   -1.921328   -0.392889
      4          6           0       -2.199660   -1.519198   -0.194268
      5          7           0       -2.262961   -0.183477    0.038849
      6          1           0       -0.500444   -2.907851   -0.590233
      7          1           0       -3.101865   -2.113364   -0.204521
      8          1           0        1.361933   -1.160033    0.785176
      9          6           0       -0.536840    1.470195    0.110023
     10          8           0        0.780937    1.711129   -0.055858
     11          8           0       -1.306074    2.404936    0.392877
     12          8           0        2.973159    0.286613   -0.912706
     13          1           0        2.926477   -0.213394   -1.737823
     14          1           0        1.300642    0.956127   -0.416084
     15          8           0        2.227818   -1.354303    1.224321
     16          1           0        2.241862   -0.813891    2.025095
     17          1           0        2.947448   -0.381449   -0.199525
 ---------------------------------------------------------------------

 SCF Done:  E(UM062X) =  -583.597429334     A.U. after    1 cycles

 The electronic state is 2-A.
 Alpha  occ. eigenvalues --  -19.67605 -19.64467 -19.63915 -19.62065 -14.85711
 Alpha  occ. eigenvalues --  -14.77541 -14.77101 -10.69734 -10.55991 -10.55814
 Alpha  occ. eigenvalues --   -1.23368  -1.16872  -1.13238  -1.12193  -1.11572
 Alpha  occ. eigenvalues --   -0.96659  -0.93710  -0.75642  -0.69109  -0.67704
 Alpha  occ. eigenvalues --   -0.62762  -0.60364  -0.58897  -0.57111  -0.53996
 Alpha  occ. eigenvalues --   -0.52376  -0.49421  -0.48785  -0.48019  -0.46851
 Alpha  occ. eigenvalues --   -0.46292  -0.40650  -0.39947  -0.39404  -0.39112
 Alpha  occ. eigenvalues --   -0.37004  -0.35550  -0.35507  -0.33569  -0.15672
 Alpha virt. eigenvalues --    0.02289   0.04037   0.04529   0.05086   0.06758
 Alpha virt. eigenvalues --    0.06969   0.07419   0.08818   0.09676   0.09975
 Alpha virt. eigenvalues --    0.10812   0.11476   0.11961   0.13461   0.15561

  Beta  occ. eigenvalues --  -19.67553 -19.64466 -19.63899 -19.61864 -14.85693
  Beta  occ. eigenvalues --  -14.77096 -14.76619 -10.69608 -10.55937 -10.55805
  Beta  occ. eigenvalues --   -1.22893  -1.16229  -1.13164  -1.11744  -1.11511
  Beta  occ. eigenvalues --   -0.95194  -0.92965  -0.74823  -0.68726  -0.67324
  Beta  occ. eigenvalues --   -0.62051  -0.60242  -0.58526  -0.55640  -0.53497
  Beta  occ. eigenvalues --   -0.52059  -0.48876  -0.48003  -0.47410  -0.46675
  Beta  occ. eigenvalues --   -0.46000  -0.40563  -0.39173  -0.38580  -0.38125
  Beta  occ. eigenvalues --   -0.36546  -0.34509  -0.31528  -0.31061
  Beta virt. eigenvalues --   -0.00175   0.02085   0.04080   0.04294   0.04844
  Beta virt. eigenvalues --    0.06630   0.06819   0.08216   0.08507   0.08761
  Beta virt. eigenvalues --    0.10773   0.11239   0.11692   0.12670   0.13067

 Mulliken charges and spin densities:
               1          2
     1  N   -0.050892  -0.045130
     2  N   -0.550379   0.288317
     3  C   -0.168762   0.113519
     4  C   -0.193193   0.026858
     5  N   -0.398850   0.348308
     6  H    0.203234  -0.005546
     7  H    0.199653  -0.002420
     8  H    0.478948   0.002637
     9  C    0.776117   0.161188
    10  O   -0.589965   0.014281
    11  O   -0.709198   0.091425
    12  O   -0.899573   0.000928
    13  H    0.444256  -0.000198
    14  H    0.468196  -0.000022
    15  O   -0.917971   0.006045
    16  H    0.438642  -0.000259
    17  H    0.469738   0.000066
 Sum of Mulliken charges =  -1.00000   1.00000

 Dipole moment (field-independent basis, Debye):
    X=              4.5082    Y=             -8.1245    Z=             -1.2665  Tot=              9.3774
 Quadrupole moment (field-independent basis, Debye-Ang):
   XX=            -84.8310   YY=            -84.4306   ZZ=            -57.4801
   XY=              9.7345   XZ=              1.2911   YZ=              1.5302

  Exact polarizability: 137.008   4.372 171.734  -3.564  13.545  84.368
 Approx polarizability: 112.211  -0.759 125.314  -3.868   9.539  72.827

                      1                      2                      3
                      A                      A                      A
 Frequencies --     41.8194                46.0259                83.5157
 Red. masses --      6.7199                 6.0942                 5.1359
 Frc consts  --      0.0069                 0.0076                 0.0211
 IR Inten    --      0.8799                11.6019                 1.7554

                      4                      5                      6
                      A                      A                      A
 Frequencies --    131.8819               142.5966               160.1671
 Red. masses --      6.1158                 7.3494                 8.0176
 Frc consts  --      0.0627                 0.0880                 0.1212
 IR Inten    --      6.5111                26.1989                 9.1263

                      7                      8                      9
                      A                      A                      A
 Frequencies --    174.3936               190.1626               248.5044
 Red. masses --      6.4560                 4.7069                 1.9873
 Frc consts  --      0.1157                 0.1003                 0.0723
 IR Inten    --     19.0488                61.5659               147.1199

                     10                     11                     12
                      A                      A                      A
 Frequencies --    259.9853               281.9354               395.5957
 Red. masses --      1.1864                 1.7932                 1.0937
 Frc consts  --      0.0472                 0.0840                 0.1008
 IR Inten    --    269.0810                78.0554                19.1621

                     13                     14                     15
                      A                      A                      A
 Frequencies --    447.6368               465.1525               493.0794
 Red. masses --      1.2635                 6.8192                 4.3776
 Frc consts  --      0.1492                 0.8693                 0.6271
 IR Inten    --     66.2245                 3.9256               107.8387

                     16                     17                     18
                      A                      A                      A
 Frequencies --    536.2735               565.3270               611.8178
 Red. masses --      1.1483                 5.0670                 4.0879
 Frc consts  --      0.1946                 0.9541                 0.9016
 IR Inten    --    485.9192                20.0642                 0.0548

                     19                     20                     21
                      A                      A                      A
 Frequencies --    629.9040               696.7202               745.9999
 Red. masses --      2.5620                 1.5791                 7.8703
 Frc consts  --      0.5989                 0.4516                 2.5806
 IR Inten    --    262.5924               139.2281                16.4673

                     22                     23                     24
                      A                      A                      A
 Frequencies --    764.0973               853.9880               869.5821
 Red. masses --      1.1902                 1.0487                 1.3038
 Frc consts  --      0.4094                 0.4506                 0.5809
 IR Inten    --    115.2889                97.1660                 3.1155

                     25                     26                     27
                      A                      A                      A
 Frequencies --    878.6078               953.1481              1096.3282
 Red. masses --      6.2357                 7.6478                 2.8528
 Frc consts  --      2.8361                 4.0936                 2.0202
 IR Inten    --     48.7625                35.2685               232.1563

                     28                     29                     30
                      A                      A                      A
 Frequencies --   1117.8527              1136.3592              1188.7656
 Red. masses --      1.3164                 1.9037                 1.7821
 Frc consts  --      0.9692                 1.4484                 1.4838
 IR Inten    --     10.2746               334.0681               727.0698

                     31                     32                     33
                      A                      A                      A
 Frequencies --   1227.5035              1282.5714              1416.4904
 Red. masses --     10.0244                 6.7470                 2.5271
 Frc consts  --      8.8993                 6.5392                 2.9874
 IR Inten    --     24.4962                34.3612               166.9044

                     34                     35                     36
                      A                      A                      A
 Frequencies --   1476.9125              1538.1690              1581.0357
 Red. masses --     10.5546                 4.8118                 1.0744
 Frc consts  --     13.5644                 6.7076                 1.5824
 IR Inten    --    277.7100                56.4575               114.9129

                     37                     38                     39
                      A                      A                      A
 Frequencies --   1599.7874              1681.8662              3287.4435
 Red. masses --      1.0731                 9.7498                 1.0805
 Frc consts  --      1.6181                16.2492                 6.8798
 IR Inten    --    133.3628              1927.6625               829.1607

                     40                     41                     42
                      A                      A                      A
 Frequencies --   3293.2488              3310.2938              3504.3807
 Red. masses --      1.0786                 1.1052                 1.0692
 Frc consts  --      6.8924                 7.1356                 7.7366
 IR Inten    --   1169.8428                12.3351               915.5547

                     43                     44                     45
                      A                      A                      A
 Frequencies --   3619.9071              3887.6147              3897.2452
 Red. masses --      1.0604                 1.0668                 1.0698
 Frc consts  --      8.1869                 9.4991                 9.5731
 IR Inten    --    727.9415               191.2092               150.2638

 - Thermochemistry -
 -------------------
 Temperature   298.150 Kelvin.  Pressure   1.00000 Atm.
 Atom     1 has atomic number  7 and mass  14.00307

 Molecular mass:   149.04366 amu.
 Principal axes and moments of inertia in atomic units:
                           1         2         3
     Eigenvalues --  1238.092421787.673062655.02762
           X            0.99971   0.02426   0.00075
           Y           -0.02426   0.99970  -0.00143
           Z           -0.00079   0.00141   1.00000
 This molecule is an asymmetric top.
 Rotational symmetry number  1.
 Warning -- assumption of classical behavior for rotation
           may cause significant error
 Rotational temperatures (Kelvin)      0.06996     0.04845     0.03262
 Rotational constants (GHZ):           1.45768     1.00955     0.67974
 Zero-point vibrational energy     315884.1 (Joules/Mol)
                                   75.49811 (Kcal/Mol)
 Warning -- explicit consideration of  18 degrees of freedom as
           vibrations may cause significant error
 Vibrational temperatures:     60.17    66.22   120.16   189.75   205.16
          (Kelvin)            230.44   250.91   273.60   357.54   374.06
                              405.64   569.17   644.05   669.25   709.43
                              771.58   813.38   880.27   906.29  1002.43
                             1073.33  1099.37  1228.70  1251.13  1264.12
                             1371.37  1577.37  1608.34  1634.97  1710.37
                             1766.10  1845.33  2038.01  2124.95  2213.08
                             2274.76  2301.74  2419.83  4729.90  4738.25
                             4762.77  5042.02  5208.24  5593.41  5607.27

 Zero-point correction=                           0.120314 (Hartree/Particle)
 Thermal correction to Energy=                    0.132552
 Thermal correction to Enthalpy=                  0.133496
 Thermal correction to Gibbs Free Energy=         0.080738
 Sum of electronic and zero-point Energies=           -583.477115
 Sum of electronic and thermal Energies=              -583.464878
 Sum of electronic and thermal Enthalpies=            -583.463934
 Sum of electronic and thermal Free Energies=         -583.516691

                     E (Thermal)             CV                S
                      KCal/Mol        Cal/Mol-Kelvin    Cal/Mol-Kelvin
 Total                   83.177             42.352            111.037
 Electronic               0.000              0.000              1.377
 Translational            0.889              2.981             40.908
 Rotational               0.889              2.981             30.153
 Vibrational             81.400             36.390             38.599
 Vibration     1          0.594              1.980              5.171
 Vibration     2          0.595              1.979              4.981
 Vibration     3          0.600              1.961              3.807
 Vibration     4          0.612              1.921              2.918
 Vibration     5          0.616              1.911              2.769
 Vibration     6          0.622              1.891              2.548
 Vibration     7          0.627              1.874              2.388
 Vibration     8          0.633              1.853              2.226
 Vibration     9          0.662              1.765              1.741
 Vibration    10          0.668              1.746              1.662
 Vibration    11          0.681              1.707              1.522
 Vibration    12          0.762              1.480              0.979
 Vibration    13          0.807              1.366              0.803
 Vibration    14          0.823              1.327              0.751
 Vibration    15          0.849              1.265              0.676
 Vibration    16          0.891              1.170              0.573
 Vibration    17          0.921              1.106              0.513
 Vibration    18          0.971              1.007              0.430

                           ! Non-Optimized Parameters !
 Normal termination of Gaussian 16 at Fri Jul  7 01:07:10 2023.
