 Gaussian 16, Revision A.03,
 Gaussian 16:  ES64L-G16RevA.03 25-Dec-2016

 ----------------------------------------------------------------------
 # opt=(calcfc,ts,noeigentest) freq 6-31+g(d,p) scrf=(smd,solvent=water
 ) integral=grid=ultrafine m062x
 ----------------------------------------------------------------------

 ----------
 2-H-1-H-Tz
 ----------
 Symbolic Z-matrix:
 Charge =  1 Multiplicity = 1

 SCF Done:  E(RM062X) =  -430.988947766     A.U. after   14 cycles
 SCF Done:  E(RM062X) =  -431.025308604     A.U. after   13 cycles
 SCF Done:  E(RM062X) =  -431.042764202     A.U. after   13 cycles
 SCF Done:  E(RM062X) =  -431.046841824     A.U. after   13 cycles
 SCF Done:  E(RM062X) =  -431.048051134     A.U. after   12 cycles
 SCF Done:  E(RM062X) =  -431.048147644     A.U. after   12 cycles
 SCF Done:  E(RM062X) =  -431.045811797     A.U. after   13 cycles
 SCF Done:  E(RM062X) =  -431.036199372     A.U. after   13 cycles
 SCF Done:  E(RM062X) =  -431.042347869     A.U. after   13 cycles
 SCF Done:  E(RM062X) =  -431.046318399     A.U. after   13 cycles
 SCF Done:  E(RM062X) =  -431.048377821     A.U. after   12 cycles
 SCF Done:  E(RM062X) =  -431.046040989     A.U. after   13 cycles
 SCF Done:  E(RM062X) =  -431.046765714     A.U. after   13 cycles
 SCF Done:  E(RM062X) =  -431.048143446     A.U. after   12 cycles
 SCF Done:  E(RM062X) =  -431.047676403     A.U. after   12 cycles
 SCF Done:  E(RM062X) =  -431.048365687     A.U. after   12 cycles
 SCF Done:  E(RM062X) =  -431.048395583     A.U. after   11 cycles
 SCF Done:  E(RM062X) =  -431.048402318     A.U. after   10 cycles
 SCF Done:  E(RM062X) =  -431.048402383     A.U. after    8 cycles
 Optimization completed.
    -- Stationary point found.
 Normal termination of Gaussian 16 at Sat May 13 19:14:35 2023.

 ----------------------------------------------------------------------
 #N Geom=AllCheck Guess=TCheck SCRF=Check GenChk RM062X/6-31+G(d,p) Fre
 q
 ----------------------------------------------------------------------

 Structure from the checkpoint file:  "/scratch/gongke2021/2-H-1-H-Tz-2-TS/Gau-32209.chk"
 ----------
 2-H-1-H-Tz
 ----------
 Charge =  1 Multiplicity = 1

                         Standard orientation:
 ---------------------------------------------------------------------
 Center     Atomic      Atomic             Coordinates (Angstroms)
 Number     Number       Type             X           Y           Z
 ---------------------------------------------------------------------
      1          7           0       -0.561687   -0.900331    0.000239
      2          7           0       -1.851485   -0.744394    0.000043
      3          6           0       -2.157375    0.563800   -0.000131
      4          6           0       -0.940484    1.234040   -0.000081
      5          7           0       -0.012134    0.270058    0.000146
      6          1           0       -3.178217    0.915136   -0.000253
      7          1           0       -0.698549    2.286240   -0.000208
      8          1           0       -2.476693   -1.556864   -0.000006
      9          1           0        0.376635   -1.609123   -0.000083
     10          6           0        1.605141    0.034454   -0.000028
     11          8           0        1.724168   -1.204088   -0.000230
     12          8           0        2.264617    1.028277    0.000103
 ---------------------------------------------------------------------

 SCF Done:  E(RM062X) =  -431.048402383     A.U. after    1 cycles

 The electronic state is 1-A.
 Alpha  occ. eigenvalues --  -19.69846 -19.68692 -14.95104 -14.95030 -14.93294
 Alpha  occ. eigenvalues --  -10.76757 -10.66595 -10.66084  -1.35569  -1.26681
 Alpha  occ. eigenvalues --   -1.19336  -1.12381  -1.01342  -0.83718  -0.82693
 Alpha  occ. eigenvalues --   -0.76073  -0.69965  -0.66355  -0.65271  -0.59246
 Alpha  occ. eigenvalues --   -0.59151  -0.57326  -0.57242  -0.57088  -0.46346
 Alpha  occ. eigenvalues --   -0.44523  -0.42099  -0.41868  -0.39757
 Alpha virt. eigenvalues --   -0.06590   0.00917   0.00979   0.02949   0.03938
 Alpha virt. eigenvalues --    0.04324   0.05207   0.05962   0.06666   0.07173
 Alpha virt. eigenvalues --    0.08496   0.09840   0.09993   0.11270   0.11454

 Mulliken charges:
               1
     1  N    0.006139
     2  N   -0.376760
     3  C   -0.036395
     4  C   -0.099718
     5  N    0.039792
     6  H    0.313370
     7  H    0.303892
     8  H    0.479132
     9  H    0.545260
    10  C    0.852442
    11  O   -0.514882
    12  O   -0.512270
 Sum of Mulliken charges =   1.00000

 Dipole moment (field-independent basis, Debye):
    X=            -13.7434    Y=             -1.6200    Z=             -0.0005  Tot=             13.8386
 Quadrupole moment (field-independent basis, Debye-Ang):
   XX=            -29.7080   YY=            -32.5211   ZZ=            -43.6292
   XY=              1.2434   XZ=              0.0014   YZ=             -0.0014

  Exact polarizability:  97.461   0.625  88.281   0.003  -0.001  39.330
 Approx polarizability:  84.405   1.642  89.210   0.003  -0.002  38.710

 ******    1 imaginary frequencies (negative Signs) ******

                      1                      2                      3
                      A                      A                      A
 Frequencies --  -1297.6003               139.2899               154.3655
 Red. masses --      1.1117                 7.6198                 6.5119
 Frc consts  --      1.1028                 0.0871                 0.0914
 IR Inten    --   2440.0715                 0.1929                 1.2996

                      4                      5                      6
                      A                      A                      A
 Frequencies --    193.4551               496.3052               554.4913
 Red. masses --      7.0375                 6.8973                 9.7916
 Frc consts  --      0.1552                 1.0010                 1.7738
 IR Inten    --    121.0492               176.5830               314.3771

                      7                      8                      9
                      A                      A                      A
 Frequencies --    630.5632               668.3973               717.7076
 Red. masses --      3.1263                10.8162                13.3940
 Frc consts  --      0.7324                 2.8470                 4.0649
 IR Inten    --      3.5746                 2.5443               606.2745

                     10                     11                     12
                      A                      A                      A
 Frequencies --    745.3878               762.8526               852.0850
 Red. masses --      1.2111                 7.1760                 1.2231
 Frc consts  --      0.3965                 2.4604                 0.5232
 IR Inten    --    262.5134                 9.9465                16.6559

                     13                     14                     15
                      A                      A                      A
 Frequencies --    938.5537               979.8970              1025.4226
 Red. masses --      1.4035                 6.1163                 1.0486
 Frc consts  --      0.7284                 3.4602                 0.6496
 IR Inten    --      5.3944                49.6502               189.8841

                     16                     17                     18
                      A                      A                      A
 Frequencies --   1039.4201              1111.7726              1148.5507
 Red. masses --      1.9394                 1.4953                 1.9951
 Frc consts  --      1.2345                 1.0889                 1.5507
 IR Inten    --     12.2687               115.6296               109.9374

                     19                     20                     21
                      A                      A                      A
 Frequencies --   1230.3954              1296.6366              1322.2024
 Red. masses --      4.1776                 1.8689                 7.0838
 Frc consts  --      3.7262                 1.8512                 7.2965
 IR Inten    --    332.0610               330.9344                 2.3787

                     22                     23                     24
                      A                      A                      A
 Frequencies --   1450.6909              1520.4528              1560.3836
 Red. masses --      3.6673                 4.5906                10.0896
 Frc consts  --      4.5472                 6.2527                14.4740
 IR Inten    --     54.3528                25.1711                 0.1559

                     25                     26                     27
                      A                      A                      A
 Frequencies --   1590.8658              1967.5055              2209.6633
 Red. masses --      3.2140                10.9505                 1.0865
 Frc consts  --      4.7924                24.9757                 3.1257
 IR Inten    --     30.0036              1254.5138              1116.8295

                     28                     29                     30
                      A                      A                      A
 Frequencies --   3332.3030              3345.6141              3507.0959
 Red. masses --      1.1001                 1.1114                 1.0903
 Frc consts  --      7.1976                 7.3295                 7.9011
 IR Inten    --     75.2437                77.0936               608.1070

 - Thermochemistry -
 -------------------
 Temperature   298.150 Kelvin.  Pressure   1.00000 Atm.
 Atom     1 has atomic number  7 and mass  14.00307

 Molecular mass:   114.03035 amu.
 Principal axes and moments of inertia in atomic units:
                           1         2         3
     Eigenvalues --   333.869661057.332551391.20219
           X            0.99998  -0.00618   0.00000
           Y            0.00618   0.99998  -0.00001
           Z           -0.00000   0.00001   1.00000
 This molecule is an asymmetric top.
 Rotational symmetry number  1.
 Rotational temperatures (Kelvin)      0.25942     0.08192     0.06226
 Rotational constants (GHZ):           5.40553     1.70688     1.29725
    1 imaginary frequencies ignored.
 Zero-point vibrational energy     218272.6 (Joules/Mol)
                                   52.16840 (Kcal/Mol)
 Warning -- explicit consideration of   5 degrees of freedom as
           vibrations may cause significant error
 Vibrational temperatures:    200.41   222.10   278.34   714.07   797.79
          (Kelvin)            907.24   961.67  1032.62  1072.45  1097.57
                             1225.96  1350.37  1409.85  1475.35  1495.49
                             1599.59  1652.51  1770.26  1865.57  1902.35
                             2087.22  2187.59  2245.04  2288.90  2830.80
                             3179.21  4794.44  4813.59  5045.93

 Zero-point correction=                           0.083136 (Hartree/Particle)
 Thermal correction to Energy=                    0.089128
 Thermal correction to Enthalpy=                  0.090072
 Thermal correction to Gibbs Free Energy=         0.052560
 Sum of electronic and zero-point Energies=           -430.965267
 Sum of electronic and thermal Energies=              -430.959275
 Sum of electronic and thermal Enthalpies=            -430.958331
 Sum of electronic and thermal Free Energies=         -430.995843

                     E (Thermal)             CV                S
                      KCal/Mol        Cal/Mol-Kelvin    Cal/Mol-Kelvin
 Total                   55.928             21.504             78.951
 Electronic               0.000              0.000              0.000
 Translational            0.889              2.981             40.109
 Rotational               0.889              2.981             27.687
 Vibrational             54.151             15.543             11.154
 Vibration     1          0.615              1.914              2.814
 Vibration     2          0.620              1.898              2.618
 Vibration     3          0.635              1.849              2.194
 Vibration     4          0.852              1.258              0.667
 Vibration     5          0.910              1.130              0.535

 Optimization completed.
    -- Stationary point found.
 Normal termination of Gaussian 16 at Sat May 13 19:15:20 2023.
