 Gaussian 16, Revision A.03,
 Gaussian 16:  ES64L-G16RevA.03 25-Dec-2016

 -----------------------------------------------------
 # opt freq 6-31+g(d,p) scrf=(smd,solvent=water) m062x
 -----------------------------------------------------

 --
 TS
 --
 Symbolic Z-matrix:
 Charge = -1 Multiplicity = 2

 SCF Done:  E(UM062X) =  -583.607482456     A.U. after   18 cycles
 SCF Done:  E(UM062X) =  -583.607483146     A.U. after   11 cycles
 SCF Done:  E(UM062X) =  -583.607483358     A.U. after   10 cycles
 SCF Done:  E(UM062X) =  -583.607482348     A.U. after   11 cycles
 SCF Done:  E(UM062X) =  -583.607481324     A.U. after   10 cycles
 SCF Done:  E(UM062X) =  -583.607483222     A.U. after   11 cycles
 SCF Done:  E(UM062X) =  -583.607477265     A.U. after   12 cycles
 SCF Done:  E(UM062X) =  -583.607477152     A.U. after   10 cycles
 SCF Done:  E(UM062X) =  -583.607483004     A.U. after   12 cycles
 SCF Done:  E(UM062X) =  -583.607483334     A.U. after   10 cycles
 SCF Done:  E(UM062X) =  -583.607483001     A.U. after    8 cycles
 SCF Done:  E(UM062X) =  -583.607472777     A.U. after   12 cycles
 SCF Done:  E(UM062X) =  -583.607482952     A.U. after   12 cycles
 SCF Done:  E(UM062X) =  -583.607472648     A.U. after   12 cycles
 SCF Done:  E(UM062X) =  -583.607472502     A.U. after    9 cycles
 SCF Done:  E(UM062X) =  -583.607472895     A.U. after    9 cycles
 SCF Done:  E(UM062X) =  -583.607473525     A.U. after    9 cycles
 SCF Done:  E(UM062X) =  -583.607482922     A.U. after   12 cycles
 SCF Done:  E(UM062X) =  -583.607473836     A.U. after   12 cycles
 Optimization completed.
    -- Stationary point found.
 Normal termination of Gaussian 16 at Fri Jul  7 04:44:59 2023.

 ----------------------------------------------------------------------
 #N Geom=AllCheck Guess=TCheck SCRF=Check GenChk UM062X/6-31+G(d,p) Fre
 q
 ----------------------------------------------------------------------

 Structure from the checkpoint file:  "/scratch/gongke2021/RC-2-N-test/Gau-19569.chk"
 --
 TS
 --
 Charge = -1 Multiplicity = 2

                         Standard orientation:
 ---------------------------------------------------------------------
 Center     Atomic      Atomic             Coordinates (Angstroms)
 Number     Number       Type             X           Y           Z
 ---------------------------------------------------------------------
      1          7           0        0.844878    0.384324   -0.020913
      2          7           0        0.703472   -0.876908    0.562765
      3          6           0        1.873897   -1.544583    0.228767
      4          6           0        2.699372   -0.634383   -0.376037
      5          7           0        2.104416    0.573916   -0.518395
      6          1           0        2.018081   -2.580764    0.490982
      7          1           0        3.715056   -0.781083   -0.713784
      8          1           0       -0.215422   -1.316818    0.408324
      9          6           0       -0.079341    1.418733    0.239281
     10          8           0       -1.113122    1.059963    0.877027
     11          8           0        0.197879    2.555971   -0.205251
     12          8           0       -3.195635    0.115932   -0.609048
     13          1           0       -4.029978    0.207069   -0.131088
     14          1           0       -2.523015    0.585206   -0.067748
     15          8           0       -1.818271   -2.219567   -0.013117
     16          1           0       -1.667543   -2.742031   -0.811472
     17          1           0       -2.396909   -1.477909   -0.288379
 ---------------------------------------------------------------------

 SCF Done:  E(UM062X) =  -583.607473836     A.U. after    1 cycles

 The electronic state is 2-A.
 Alpha  occ. eigenvalues --  -19.64234 -19.64204 -19.61072 -19.60838 -14.85202
 Alpha  occ. eigenvalues --  -14.81944 -14.78425 -10.68758 -10.57785 -10.57263
 Alpha  occ. eigenvalues --   -1.21799  -1.15981  -1.13103  -1.11724  -1.08455
 Alpha  occ. eigenvalues --   -0.99866  -0.93091  -0.75996  -0.69989  -0.67752
 Alpha  occ. eigenvalues --   -0.61492  -0.59822  -0.58449  -0.57094  -0.53552
 Alpha  occ. eigenvalues --   -0.52851  -0.50790  -0.49341  -0.48656  -0.47383
 Alpha  occ. eigenvalues --   -0.45839  -0.40465  -0.39692  -0.38883  -0.38379
 Alpha  occ. eigenvalues --   -0.36874  -0.34988  -0.34482  -0.33714  -0.18425
 Alpha virt. eigenvalues --    0.02490   0.04149   0.04499   0.05309   0.06168
 Alpha virt. eigenvalues --    0.06667   0.06816   0.08976   0.09196   0.10571
 Alpha virt. eigenvalues --    0.10837   0.10879   0.12054   0.14207   0.15290

  Beta  occ. eigenvalues --  -19.64231 -19.64198 -19.61021 -19.60767 -14.84887
  Beta  occ. eigenvalues --  -14.81554 -14.77860 -10.68742 -10.57591 -10.57354
  Beta  occ. eigenvalues --   -1.20947  -1.15421  -1.13088  -1.11707  -1.08233
  Beta  occ. eigenvalues --   -0.98350  -0.92129  -0.74842  -0.69425  -0.66873
  Beta  occ. eigenvalues --   -0.61349  -0.59714  -0.57783  -0.55574  -0.52878
  Beta  occ. eigenvalues --   -0.52444  -0.50399  -0.49064  -0.48250  -0.46310
  Beta  occ. eigenvalues --   -0.45768  -0.39923  -0.39657  -0.37209  -0.36489
  Beta  occ. eigenvalues --   -0.34963  -0.34002  -0.33117  -0.31739
  Beta virt. eigenvalues --   -0.01607   0.02218   0.04095   0.04384   0.04940
  Beta virt. eigenvalues --    0.06505   0.06690   0.07364   0.08480   0.08743
  Beta virt. eigenvalues --    0.10716   0.10890   0.11523   0.12123   0.14351

 Mulliken charges and spin densities:
               1          2
     1  N   -0.003469   0.100099
     2  N   -0.367243   0.183954
     3  C   -0.163278   0.313226
     4  C   -0.169733  -0.137107
     5  N   -0.391614   0.442824
     6  H    0.229624  -0.012087
     7  H    0.213806   0.003064
     8  H    0.430619   0.009964
     9  C    0.784329   0.034423
    10  O   -0.833572   0.021582
    11  O   -0.740751   0.035005
    12  O   -0.912466   0.000781
    13  H    0.441355  -0.000057
    14  H    0.486960   0.001386
    15  O   -0.926284   0.003188
    16  H    0.440026  -0.000175
    17  H    0.481693  -0.000072
 Sum of Mulliken charges =  -1.00000   1.00000

 Dipole moment (field-independent basis, Debye):
    X=             -0.3215    Y=            -11.4703    Z=             -1.0701  Tot=             11.5246
 Quadrupole moment (field-independent basis, Debye-Ang):
   XX=            -58.8386   YY=            -81.2239   ZZ=            -68.3043
   XY=             -7.9363   XZ=              1.8425   YZ=              6.4441

  Exact polarizability: 133.790 -12.226 142.373 -17.533 -11.417  87.339
 Approx polarizability: 105.302  -2.839 112.781 -14.275 -10.654  76.813

                      1                      2                      3
                      A                      A                      A
 Frequencies --     27.2712                36.8524                46.8139
 Red. masses --      5.8629                 7.8812                 6.8720
 Frc consts  --      0.0026                 0.0063                 0.0089
 IR Inten    --      6.6206                 7.7927                 0.0597

                      4                      5                      6
                      A                      A                      A
 Frequencies --     92.6961               112.0545               160.0124
 Red. masses --      5.2607                 7.6378                 7.6934
 Frc consts  --      0.0266                 0.0565                 0.1161
 IR Inten    --      0.3866                 2.7049                32.8527

                      7                      8                      9
                      A                      A                      A
 Frequencies --    200.0374               208.2639               237.4031
 Red. masses --      5.3910                 6.3216                 1.4234
 Frc consts  --      0.1271                 0.1615                 0.0473
 IR Inten    --     92.1710                22.6098               189.3952

                     10                     11                     12
                      A                      A                      A
 Frequencies --    249.5945               257.3903               366.6875
 Red. masses --      2.2225                 1.2749                 1.1021
 Frc consts  --      0.0816                 0.0498                 0.0873
 IR Inten    --    120.5376               190.6268                90.4064

                     13                     14                     15
                      A                      A                      A
 Frequencies --    376.5096               399.4842               454.2971
 Red. masses --      1.0942                 5.2879                 9.9547
 Frc consts  --      0.0914                 0.4972                 1.2105
 IR Inten    --    163.3987                24.3017                11.3929

                     16                     17                     18
                      A                      A                      A
 Frequencies --    565.8491               587.3212               593.2994
 Red. masses --      7.7955                 1.0766                 3.7271
 Frc consts  --      1.4706                 0.2188                 0.7730
 IR Inten    --     25.7623               314.6641                15.5242

                     19                     20                     21
                      A                      A                      A
 Frequencies --    689.9157               736.9580               750.5369
 Red. masses --      1.2022                 1.1113                 2.2640
 Frc consts  --      0.3371                 0.3556                 0.7514
 IR Inten    --    187.3180                96.4440               240.3043

                     22                     23                     24
                      A                      A                      A
 Frequencies --    766.5704               805.4830               907.2494
 Red. masses --      8.1782                 3.2174                 1.3034
 Frc consts  --      2.8315                 1.2299                 0.6321
 IR Inten    --     78.5285               207.7230                10.9929

                     25                     26                     27
                      A                      A                      A
 Frequencies --    922.0577               944.0585              1100.6602
 Red. masses --      3.7815                 4.1590                 1.6817
 Frc consts  --      1.8942                 2.1839                 1.2003
 IR Inten    --     62.6466                19.8128               159.8562

                     28                     29                     30
                      A                      A                      A
 Frequencies --   1120.9530              1219.4126              1254.0452
 Red. masses --      1.3784                 4.1550                 5.2734
 Frc consts  --      1.0205                 3.6402                 4.8862
 IR Inten    --      8.3012                44.4101                85.1813

                     31                     32                     33
                      A                      A                      A
 Frequencies --   1281.1700              1358.0595              1401.0245
 Red. masses --      9.2630                 4.5753                 2.4609
 Frc consts  --      8.9581                 4.9717                 2.8460
 IR Inten    --     34.3706              1750.8661               256.7781

                     34                     35                     36
                      A                      A                      A
 Frequencies --   1474.4374              1548.7159              1574.2825
 Red. masses --      1.8454                 3.9782                 1.1546
 Frc consts  --      2.3638                 5.6219                 1.6859
 IR Inten    --     33.1928                 8.4689               391.9234

                     37                     38                     39
                      A                      A                      A
 Frequencies --   1587.7116              1631.4463              3302.6627
 Red. masses --      1.1183                 5.5790                 1.0935
 Frc consts  --      1.6610                 8.7489                 7.0272
 IR Inten    --    119.4133              1246.2038                53.2545

                     40                     41                     42
                      A                      A                      A
 Frequencies --   3304.8891              3329.6254              3474.6437
 Red. masses --      1.0866                 1.1040                 1.0655
 Frc consts  --      6.9928                 7.2112                 7.5792
 IR Inten    --   1021.1924                 9.3466              1097.1717

                     43                     44                     45
                      A                      A                      A
 Frequencies --   3554.9986              3892.0964              3895.3814
 Red. masses --      1.0626                 1.0679                 1.0688
 Frc consts  --      7.9125                 9.5312                 9.5557
 IR Inten    --   1048.7243               243.3949               129.2071

 - Thermochemistry -
 -------------------
 Temperature   298.150 Kelvin.  Pressure   1.00000 Atm.
 Atom     1 has atomic number  7 and mass  14.00307

 Molecular mass:   149.04366 amu.
 Principal axes and moments of inertia in atomic units:
                           1         2         3
     Eigenvalues --  1168.256741879.603762820.70735
           X            0.99996  -0.00866   0.00221
           Y            0.00865   0.99995   0.00526
           Z           -0.00226  -0.00524   0.99998
 This molecule is an asymmetric top.
 Rotational symmetry number  1.
 Warning -- assumption of classical behavior for rotation
           may cause significant error
 Rotational temperatures (Kelvin)      0.07414     0.04608     0.03071
 Rotational constants (GHZ):           1.54482     0.96017     0.63982
 Zero-point vibrational energy     315819.4 (Joules/Mol)
                                   75.48265 (Kcal/Mol)
 Warning -- explicit consideration of  18 degrees of freedom as
           vibrations may cause significant error
 Vibrational temperatures:     39.24    53.02    67.35   133.37   161.22
          (Kelvin)            230.22   287.81   299.65   341.57   359.11
                              370.33   527.58   541.71   574.77   653.63
                              814.13   845.02   853.63   992.63  1060.32
                             1079.86  1102.92  1158.91  1305.33  1326.64
                             1358.29  1583.60  1612.80  1754.46  1804.29
                             1843.32  1953.94  2015.76  2121.39  2228.26
                             2265.04  2284.36  2347.29  4751.80  4755.00
                             4790.59  4999.24  5114.85  5599.86  5604.59

 Zero-point correction=                           0.120289 (Hartree/Particle)
 Thermal correction to Energy=                    0.132876
 Thermal correction to Enthalpy=                  0.133820
 Thermal correction to Gibbs Free Energy=         0.079185
 Sum of electronic and zero-point Energies=           -583.487185
 Sum of electronic and thermal Energies=              -583.474598
 Sum of electronic and thermal Enthalpies=            -583.473654
 Sum of electronic and thermal Free Energies=         -583.528289

                     E (Thermal)             CV                S
                      KCal/Mol        Cal/Mol-Kelvin    Cal/Mol-Kelvin
 Total                   83.381             42.444            114.990
 Electronic               0.000              0.000              1.377
 Translational            0.889              2.981             40.908
 Rotational               0.889              2.981             30.205
 Vibrational             81.604             36.482             42.500
 Vibration     1          0.593              1.984              6.019
 Vibration     2          0.594              1.982              5.421
 Vibration     3          0.595              1.979              4.948
 Vibration     4          0.602              1.954              3.602
 Vibration     5          0.607              1.939              3.233
 Vibration     6          0.622              1.891              2.550
 Vibration     7          0.638              1.840              2.133
 Vibration     8          0.642              1.828              2.059
 Vibration     9          0.656              1.783              1.822
 Vibration    10          0.662              1.763              1.733
 Vibration    11          0.667              1.750              1.679
 Vibration    12          0.740              1.541              1.094
 Vibration    13          0.747              1.520              1.053
 Vibration    14          0.766              1.471              0.965
 Vibration    15          0.813              1.351              0.783
 Vibration    16          0.922              1.105              0.512
 Vibration    17          0.944              1.059              0.472
 Vibration    18          0.951              1.046              0.461

                           ! Non-Optimized Parameters !
 Normal termination of Gaussian 16 at Fri Jul  7 04:47:13 2023.
