 Gaussian 16, Revision A.03,
 Gaussian 16:  ES64L-G16RevA.03 25-Dec-2016

 ----------------------------------------------------------------------
 # opt=(calcfc,ts,noeigentest,maxcycle=600) freq 6-31+g(d,p) scrf=(smd,
 solvent=water) integral=grid=ultrafine m062x
 ----------------------------------------------------------------------

 --
 TS
 --
 Symbolic Z-matrix:
 Charge =  0 Multiplicity = 1

 SCF Done:  E(RM062X) =  -507.031360093     A.U. after   14 cycles
 SCF Done:  E(RM062X) =  -507.061635318     A.U. after   13 cycles
 SCF Done:  E(RM062X) =  -507.072516588     A.U. after   14 cycles
 SCF Done:  E(RM062X) =  -507.072416294     A.U. after   14 cycles
 SCF Done:  E(RM062X) =  -507.074305291     A.U. after   12 cycles
 SCF Done:  E(RM062X) =  -507.074204636     A.U. after   14 cycles
 SCF Done:  E(RM062X) =  -507.072964165     A.U. after   14 cycles
 SCF Done:  E(RM062X) =  -507.071874479     A.U. after   14 cycles
 SCF Done:  E(RM062X) =  -507.072046877     A.U. after   15 cycles
 SCF Done:  E(RM062X) =  -507.071559308     A.U. after   14 cycles
 SCF Done:  E(RM062X) =  -507.075301241     A.U. after   14 cycles
 SCF Done:  E(RM062X) =  -507.075341277     A.U. after   12 cycles
 SCF Done:  E(RM062X) =  -507.075355359     A.U. after   10 cycles
 SCF Done:  E(RM062X) =  -507.075358865     A.U. after   10 cycles
 SCF Done:  E(RM062X) =  -507.075359651     A.U. after    9 cycles
 SCF Done:  E(RM062X) =  -507.075359507     A.U. after   10 cycles
 SCF Done:  E(RM062X) =  -507.075360207     A.U. after    9 cycles
 SCF Done:  E(RM062X) =  -507.075360176     A.U. after    9 cycles
 SCF Done:  E(RM062X) =  -507.075360258     A.U. after    8 cycles
 Optimization completed.
    -- Stationary point found.
 Normal termination of Gaussian 16 at Fri Jul  7 10:42:15 2023.

 ----------------------------------------------------------------------
 #N Geom=AllCheck Guess=TCheck SCRF=Check GenChk RM062X/6-31+G(d,p) Fre
 q
 ----------------------------------------------------------------------

 Structure from the checkpoint file:  "/scratch/gongke2021/TS/Gau-20124.chk"
 --
 TS
 --
 Charge =  0 Multiplicity = 1

                         Standard orientation:
 ---------------------------------------------------------------------
 Center     Atomic      Atomic             Coordinates (Angstroms)
 Number     Number       Type             X           Y           Z
 ---------------------------------------------------------------------
      1          8           0        2.701358   -1.379072    0.077488
      2          1           0        3.442194   -0.848971   -0.275346
      3          1           0        2.621916   -2.200001   -0.444868
      4          7           0       -0.557753    0.261431   -0.000183
      5          7           0       -0.104248   -0.984765    0.014113
      6          6           0       -1.196493   -1.737943    0.010320
      7          6           0       -2.310451   -0.880653   -0.006280
      8          7           0       -1.875368    0.374310   -0.012443
      9          1           0       -1.143630   -2.816191    0.019522
     10          1           0       -3.364277   -1.113682   -0.013694
     11          1           0        1.850535   -0.842493    0.023028
     12          6           0        0.383519    1.406669    0.001173
     13          8           0        1.575840    1.047908    0.015152
     14          8           0       -0.140273    2.523173   -0.011430
 ---------------------------------------------------------------------

 SCF Done:  E(RM062X) =  -507.075360258     A.U. after    1 cycles

 The electronic state is 1-A.
 Alpha  occ. eigenvalues --  -19.76488 -19.63078 -19.62831 -14.88245 -14.82121
 Alpha  occ. eigenvalues --  -14.81647 -10.70970 -10.58999 -10.58676  -1.26394
 Alpha  occ. eigenvalues --   -1.25309  -1.19252  -1.11342  -1.01261  -0.93897
 Alpha  occ. eigenvalues --   -0.74606  -0.72496  -0.70474  -0.70148  -0.64511
 Alpha  occ. eigenvalues --   -0.58971  -0.58623  -0.54137  -0.53779  -0.53228
 Alpha  occ. eigenvalues --   -0.51239  -0.50436  -0.41733  -0.39520  -0.38271
 Alpha  occ. eigenvalues --   -0.37263  -0.35870  -0.35661  -0.33656
 Alpha virt. eigenvalues --   -0.00294   0.01577   0.03314   0.04059   0.04813
 Alpha virt. eigenvalues --    0.06198   0.06285   0.06709   0.07899   0.09057
 Alpha virt. eigenvalues --    0.10264   0.10613   0.11569   0.11695   0.12037

 Mulliken charges:
               1
     1  O   -0.578907
     2  H    0.505848
     3  H    0.502057
     4  N   -0.222562
     5  N   -0.125482
     6  C   -0.166825
     7  C   -0.148760
     8  N   -0.246350
     9  H    0.231806
    10  H    0.229393
    11  H    0.543659
    12  C    0.833626
    13  O   -0.691451
    14  O   -0.666052
 Sum of Mulliken charges =   0.00000

 Dipole moment (field-independent basis, Debye):
    X=              6.8723    Y=            -15.2504    Z=             -1.9577  Tot=             16.8416
 Quadrupole moment (field-independent basis, Debye-Ang):
   XX=            -25.0111   YY=            -57.6837   ZZ=            -52.6626
   XY=             -9.4931   XZ=             -6.0283   YZ=              3.5154

  Exact polarizability: 111.903   3.908 114.471   0.026  -0.004  55.437
 Approx polarizability:  97.827  -0.363  99.772   0.102  -0.018  51.656

 ******    1 imaginary frequencies (negative Signs) ******

                      1                      2                      3
                      A                      A                      A
 Frequencies --   -310.3519                43.1550                92.7720
 Red. masses --      1.1017                 6.7583                 8.5562
 Frc consts  --      0.0625                 0.0074                 0.0434
 IR Inten    --    125.7455                17.3939                 0.5207

                      4                      5                      6
                      A                      A                      A
 Frequencies --    126.3008               162.8929               211.8618
 Red. masses --      3.4751                 6.6436                 3.9652
 Frc consts  --      0.0327                 0.1039                 0.1049
 IR Inten    --      0.2444                 0.5296                89.3427

                      7                      8                      9
                      A                      A                      A
 Frequencies --    219.0862               280.3458               447.3244
 Red. masses --      1.1808                 8.4044                11.1687
 Frc consts  --      0.0334                 0.3892                 1.3167
 IR Inten    --    106.8178                 2.5676                 4.4833

                     10                     11                     12
                      A                      A                      A
 Frequencies --    483.1882               566.6545               676.6760
 Red. masses --      1.0881                11.2736                 3.5848
 Frc consts  --      0.1497                 2.1328                 0.9671
 IR Inten    --    178.7138                 2.8094                 0.4740

                     13                     14                     15
                      A                      A                      A
 Frequencies --    682.9567               775.4360               786.9378
 Red. masses --     11.5994                13.3167                12.5988
 Frc consts  --      3.1877                 4.7178                 4.5968
 IR Inten    --     12.1805               494.7708                46.2447

                     16                     17                     18
                      A                      A                      A
 Frequencies --    862.3719               927.5285               963.3360
 Red. masses --      1.1848                 1.4066                 7.5090
 Frc consts  --      0.5192                 0.7130                 4.1057
 IR Inten    --     86.9916                 0.0201                42.2437

                     19                     20                     21
                      A                      A                      A
 Frequencies --   1016.4386              1069.3505              1101.8030
 Red. masses --      2.8877                 1.1292                 2.0462
 Frc consts  --      1.7578                 0.7608                 1.4636
 IR Inten    --     28.0569               505.6492                35.4992

                     22                     23                     24
                      A                      A                      A
 Frequencies --   1209.4194              1280.9077              1314.1006
 Red. masses --      1.3785                 9.7255                 7.9320
 Frc consts  --      1.1880                 9.4015                 8.0703
 IR Inten    --     45.2343               767.9838               116.1490

                     25                     26                     27
                      A                      A                      A
 Frequencies --   1375.2572              1384.6003              1486.9099
 Red. masses --      7.8952                 7.7916                 3.9409
 Frc consts  --      8.7980                 8.8009                 5.1335
 IR Inten    --    303.8549                36.2108                 9.2202

                     28                     29                     30
                      A                      A                      A
 Frequencies --   1533.3246              1556.1993              1657.8569
 Red. masses --      1.1435                 5.1648                 1.0568
 Frc consts  --      1.5840                 7.3694                 1.7114
 IR Inten    --    523.9476                36.8431               107.5786

                     31                     32                     33
                      A                      A                      A
 Frequencies --   1752.9273              3150.5257              3312.5414
 Red. masses --      9.9315                 1.0662                 1.0949
 Frc consts  --     17.9802                 6.2350                 7.0788
 IR Inten    --   1518.8036              2137.8191                 0.7955

                     34                     35                     36
                      A                      A                      A
 Frequencies --   3326.3782              3708.8738              3775.5530
 Red. masses --      1.1062                 1.0465                 1.0847
 Frc consts  --      7.2113                 8.4817                 9.1100
 IR Inten    --      1.9642               305.3554               509.6503

 - Thermochemistry -
 -------------------
 Temperature   298.150 Kelvin.  Pressure   1.00000 Atm.
 Atom     1 has atomic number  8 and mass  15.99491

 Molecular mass:   131.03309 amu.
 Principal axes and moments of inertia in atomic units:
                           1         2         3
     Eigenvalues --   896.083881174.885442068.37449
           X            0.99900  -0.04434  -0.00629
           Y            0.04437   0.99900   0.00482
           Z            0.00607  -0.00509   0.99997
 This molecule is an asymmetric top.
 Rotational symmetry number  1.
 Warning -- assumption of classical behavior for rotation
           may cause significant error
 Rotational temperatures (Kelvin)      0.09666     0.07372     0.04188
 Rotational constants (GHZ):           2.01403     1.53610     0.87254
    1 imaginary frequencies ignored.
 Zero-point vibrational energy     259121.9 (Joules/Mol)
                                   61.93161 (Kcal/Mol)
 Warning -- explicit consideration of  10 degrees of freedom as
           vibrations may cause significant error
 Vibrational temperatures:     62.09   133.48   181.72   234.37   304.82
          (Kelvin)            315.22   403.36   643.60   695.20   815.29
                              973.59   982.62  1115.68  1132.23  1240.76
                             1334.51  1386.03  1462.43  1538.56  1585.25
                             1740.08  1842.94  1890.70  1978.69  1992.13
                             2139.33  2206.11  2239.02  2385.29  2522.07
                             4532.90  4766.01  4785.92  5336.24  5432.18

 Zero-point correction=                           0.098694 (Hartree/Particle)
 Thermal correction to Energy=                    0.107356
 Thermal correction to Enthalpy=                  0.108300
 Thermal correction to Gibbs Free Energy=         0.063942
 Sum of electronic and zero-point Energies=           -506.976666
 Sum of electronic and thermal Energies=              -506.968004
 Sum of electronic and thermal Enthalpies=            -506.967060
 Sum of electronic and thermal Free Energies=         -507.011418

                     E (Thermal)             CV                S
                      KCal/Mol        Cal/Mol-Kelvin    Cal/Mol-Kelvin
 Total                   67.367             29.300             93.360
 Electronic               0.000              0.000              0.000
 Translational            0.889              2.981             40.524
 Rotational               0.889              2.981             29.167
 Vibrational             65.590             23.338             23.669
 Vibration     1          0.595              1.980              5.109
 Vibration     2          0.602              1.954              3.601
 Vibration     3          0.611              1.927              3.002
 Vibration     4          0.623              1.888              2.516
 Vibration     5          0.643              1.823              2.028
 Vibration     6          0.647              1.812              1.967
 Vibration     7          0.680              1.710              1.532
 Vibration     8          0.806              1.367              0.804
 Vibration     9          0.839              1.287              0.702
 Vibration    10          0.923              1.103              0.511

 Optimization completed.
    -- Stationary point found.
 Normal termination of Gaussian 16 at Fri Jul  7 10:43:14 2023.
