 Gaussian 16, Revision A.03,
 Gaussian 16:  ES64L-G16RevA.03 25-Dec-2016

 ----------------------------------------------------------------------
 # opt=(calcfc,ts,noeigentest) freq 6-31+g(d,p) integral=grid=ultrafine
  m062x
 ----------------------------------------------------------------------

 -------------------
 Title Card Required
 -------------------
 Symbolic Z-matrix:
 Charge = -1 Multiplicity = 2

 SCF Done:  E(UM062X) =  -523.047618278     A.U. after   21 cycles
 SCF Done:  E(UM062X) =  -523.070134185     A.U. after   18 cycles
 SCF Done:  E(UM062X) =  -523.084921274     A.U. after   17 cycles
 SCF Done:  E(UM062X) =  -523.097968283     A.U. after   17 cycles
 SCF Done:  E(UM062X) =  -523.102830514     A.U. after   17 cycles
 SCF Done:  E(UM062X) =  -523.103262138     A.U. after   18 cycles
 SCF Done:  E(UM062X) =  -523.103258230     A.U. after   16 cycles
 SCF Done:  E(UM062X) =  -523.102681895     A.U. after   17 cycles
 SCF Done:  E(UM062X) =  -523.102915703     A.U. after   17 cycles
 SCF Done:  E(UM062X) =  -523.101525049     A.U. after   17 cycles
 SCF Done:  E(UM062X) =  -523.101870402     A.U. after   16 cycles
 SCF Done:  E(UM062X) =  -523.102511999     A.U. after   16 cycles
 SCF Done:  E(UM062X) =  -523.102563678     A.U. after   16 cycles
 SCF Done:  E(UM062X) =  -523.102772328     A.U. after   16 cycles
 SCF Done:  E(UM062X) =  -523.102394930     A.U. after   17 cycles
 SCF Done:  E(UM062X) =  -523.102774651     A.U. after   17 cycles
 SCF Done:  E(UM062X) =  -523.102784878     A.U. after   15 cycles
 SCF Done:  E(UM062X) =  -523.102786970     A.U. after   14 cycles
 SCF Done:  E(UM062X) =  -523.102787098     A.U. after   12 cycles
 Optimization completed.
    -- Stationary point found.
 Normal termination of Gaussian 16 at Mon Nov 13 02:31:55 2023.

 ----------------------------------------------------------------------
 #N Geom=AllCheck Guess=TCheck SCRF=Check GenChk UM062X/6-31+G(d,p) Fre
 q
 ----------------------------------------------------------------------

 Structure from the checkpoint file:  "/scratch/gongke2021/sidanzuo-TS/Gau-23693.chk"
 -------------------
 Title Card Required
 -------------------
 Charge = -1 Multiplicity = 2

                         Standard orientation:
 ---------------------------------------------------------------------
 Center     Atomic      Atomic             Coordinates (Angstroms)
 Number     Number       Type             X           Y           Z
 ---------------------------------------------------------------------
      1          7           0       -0.486769    0.959171    0.223187
      2          7           0       -0.306998   -0.389705   -0.054050
      3          7           0       -1.534574   -1.022592   -0.171083
      4          7           0       -2.446616   -0.042276   -0.073817
      5          6           0       -1.832607    1.097781    0.130984
      6          6           0        0.932898   -1.061633    0.039983
      7          8           0        0.955428   -2.279646   -0.008360
      8          8           0        1.972569   -0.279958    0.162282
      9          1           0        2.077365    2.606041    0.400316
     10          1           0       -2.327440    2.049818    0.251599
     11          8           0        1.670886    2.072003   -0.288871
     12          1           0        0.387068    1.652401   -0.003701
     13          1           0        1.894901    0.843474   -0.064079
 ---------------------------------------------------------------------

 SCF Done:  E(UM062X) =  -523.102787098     A.U. after    1 cycles

 The electronic state is 2-A.
 Alpha  occ. eigenvalues --  -19.48779 -19.47356 -19.45895 -14.71115 -14.67464
 Alpha  occ. eigenvalues --  -14.66065 -14.64656 -10.54826 -10.47727  -1.09585
 Alpha  occ. eigenvalues --   -1.04051  -0.96775  -0.93335  -0.89680  -0.83884
 Alpha  occ. eigenvalues --   -0.66012  -0.58432  -0.54419  -0.51879  -0.45071
 Alpha  occ. eigenvalues --   -0.43157  -0.41404  -0.37542  -0.36210  -0.35353
 Alpha  occ. eigenvalues --   -0.30013  -0.27557  -0.25535  -0.23762  -0.23306
 Alpha  occ. eigenvalues --   -0.22197  -0.21142  -0.20789  -0.19000  -0.04213
 Alpha virt. eigenvalues --    0.12688   0.15252   0.16020   0.16272   0.18704
 Alpha virt. eigenvalues --    0.19005   0.19272   0.21752   0.22931   0.23469
 Alpha virt. eigenvalues --    0.25335   0.26066   0.28387   0.29349   0.31265

  Beta  occ. eigenvalues --  -19.48744 -19.47355 -19.45760 -14.70766 -14.67060
  Beta  occ. eigenvalues --  -14.65351 -14.64735 -10.54818 -10.47660  -1.08549
  Beta  occ. eigenvalues --   -1.03644  -0.96536  -0.93246  -0.88587  -0.82621
  Beta  occ. eigenvalues --   -0.64644  -0.57799  -0.53580  -0.51717  -0.44134
  Beta  occ. eigenvalues --   -0.41601  -0.40558  -0.37250  -0.35933  -0.34257
  Beta  occ. eigenvalues --   -0.29859  -0.26715  -0.22855  -0.22338  -0.21861
  Beta  occ. eigenvalues --   -0.20950  -0.20437  -0.18833  -0.18314
  Beta virt. eigenvalues --    0.12528   0.13319   0.14957   0.15896   0.16173
  Beta virt. eigenvalues --    0.18654   0.19013   0.19378   0.22521   0.22909
  Beta virt. eigenvalues --    0.23404   0.25949   0.27173   0.28232   0.29114

 Mulliken charges and spin densities:
               1          2
     1  N   -0.458398   0.219705
     2  N   -0.083623   0.131734
     3  N   -0.178701   0.493340
     4  N   -0.274353  -0.059379
     5  C   -0.031133   0.108469
     6  C    0.721219   0.029560
     7  O   -0.530153   0.066829
     8  O   -0.638106   0.013911
     9  H    0.362404   0.000665
    10  H    0.142528  -0.005836
    11  O   -1.027472   0.003120
    12  H    0.477588  -0.001921
    13  H    0.518200  -0.000196
 Sum of Mulliken charges =  -1.00000   1.00000

 Dipole moment (field-independent basis, Debye):
    X=             -0.7374    Y=              5.4435    Z=              1.6114  Tot=              5.7247
 Quadrupole moment (field-independent basis, Debye-Ang):
   XX=            -76.1981   YY=            -70.0247   ZZ=            -55.8056
   XY=             -2.1694   XZ=              1.4890   YZ=              3.9989

  Exact polarizability:  92.885  -2.654  92.326   1.583   3.065  46.502
 Approx polarizability:  99.524   0.967 110.816   3.020   5.436  57.600

 ******    1 imaginary frequencies (negative Signs) ******

                      1                      2                      3
                      A                      A                      A
 Frequencies --   -830.6833                61.2513                85.9505
 Red. masses --      1.2948                 7.6019                 8.5629
 Frc consts  --      0.5264                 0.0168                 0.0373
 IR Inten    --    488.0894                 1.3049                 0.3627

                      4                      5                      6
                      A                      A                      A
 Frequencies --    124.8286               252.5138               362.6732
 Red. masses --     11.3684                 9.0379                 9.9036
 Frc consts  --      0.1044                 0.3395                 0.7675
 IR Inten    --      2.9794                 1.8958                 9.3040

                      7                      8                      9
                      A                      A                      A
 Frequencies --    403.1077               441.9401               480.1236
 Red. masses --     12.3321                 1.0913                 6.8940
 Frc consts  --      1.1807                 0.1256                 0.9363
 IR Inten    --     41.7209                48.9356               150.8239

                     10                     11                     12
                      A                      A                      A
 Frequencies --    522.9017               556.3392               584.0819
 Red. masses --      1.4235                 6.0279                 3.7995
 Frc consts  --      0.2293                 1.0992                 0.7637
 IR Inten    --     50.3394                46.5587               135.6586

                     13                     14                     15
                      A                      A                      A
 Frequencies --    637.4526               734.5951               793.3218
 Red. masses --      5.7104                12.1481                 1.2871
 Frc consts  --      1.3671                 3.8624                 0.4773
 IR Inten    --     18.0910                23.0525                23.0646

                     16                     17                     18
                      A                      A                      A
 Frequencies --    894.6318               951.5195              1013.6311
 Red. masses --      6.6826                 6.1217                 4.1076
 Frc consts  --      3.1513                 3.2656                 2.4866
 IR Inten    --    217.6779                30.6332               135.6574

                     19                     20                     21
                      A                      A                      A
 Frequencies --   1070.0027              1153.0665              1183.8904
 Red. masses --      6.9541                 2.6953                 1.2668
 Frc consts  --      4.6910                 2.1114                 1.0461
 IR Inten    --     54.2991                37.5966               556.3145

                     22                     23                     24
                      A                      A                      A
 Frequencies --   1232.1716              1283.8201              1299.4284
 Red. masses --      2.3575                 3.7945                 3.5264
 Frc consts  --      2.1089                 3.6848                 3.5083
 IR Inten    --     20.1585                97.6311               175.2240

                     25                     26                     27
                      A                      A                      A
 Frequencies --   1368.9834              1441.7322              1549.7423
 Red. masses --      1.2245                 5.5692                 3.1204
 Frc consts  --      1.3520                 6.8204                 4.4155
 IR Inten    --    119.4070               865.1195               207.9972

                     28                     29                     30
                      A                      A                      A
 Frequencies --   1577.3084              1794.4944              1817.3642
 Red. masses --      1.4643                 1.5753                 2.3871
 Frc consts  --      2.1464                 2.9888                 4.6452
 IR Inten    --    628.1214                29.5870              1410.7090

                     31                     32                     33
                      A                      A                      A
 Frequencies --   1912.2905              3297.6417              3934.9402
 Red. masses --      1.2399                 1.0955                 1.0658
 Frc consts  --      2.6715                 7.0189                 9.7228
 IR Inten    --   3137.4944                 3.7739                18.6119

 - Thermochemistry -
 -------------------
 Temperature   298.150 Kelvin.  Pressure   1.00000 Atm.
 Atom     1 has atomic number  7 and mass  14.00307

 Molecular mass:   132.02834 amu.
 Principal axes and moments of inertia in atomic units:
                           1         2         3
     Eigenvalues --   814.925621109.707301900.18378
           X            0.99935   0.03597   0.00049
           Y           -0.03597   0.99933   0.00684
           Z           -0.00025  -0.00686   0.99998
 This molecule is an asymmetric top.
 Rotational symmetry number  1.
 Warning -- assumption of classical behavior for rotation
           may cause significant error
 Rotational temperatures (Kelvin)      0.10628     0.07805     0.04558
 Rotational constants (GHZ):           2.21461     1.62632     0.94977
    1 imaginary frequencies ignored.
 Zero-point vibrational energy     208256.3 (Joules/Mol)
                                   49.77446 (Kcal/Mol)
 Warning -- explicit consideration of  11 degrees of freedom as
           vibrations may cause significant error
 Vibrational temperatures:     88.13   123.66   179.60   363.31   521.81
          (Kelvin)            579.98   635.85   690.79   752.34   800.45
                              840.36   917.15  1056.92  1141.41  1287.18
                             1369.02  1458.39  1539.50  1659.01  1703.35
                             1772.82  1847.13  1869.59  1969.66  2074.33
                             2229.73  2269.40  2581.88  2614.78  2751.36
                             4744.57  5661.50

 Zero-point correction=                           0.079321 (Hartree/Particle)
 Thermal correction to Energy=                    0.087208
 Thermal correction to Enthalpy=                  0.088153
 Thermal correction to Gibbs Free Energy=         0.045154
 Sum of electronic and zero-point Energies=           -523.023466
 Sum of electronic and thermal Energies=              -523.015579
 Sum of electronic and thermal Enthalpies=            -523.014634
 Sum of electronic and thermal Free Energies=         -523.057633

                     E (Thermal)             CV                S
                      KCal/Mol        Cal/Mol-Kelvin    Cal/Mol-Kelvin
 Total                   54.724             27.984             90.498
 Electronic               0.000              0.000              1.377
 Translational            0.889              2.981             40.546
 Rotational               0.889              2.981             28.931
 Vibrational             52.947             22.022             19.643
 Vibration     1          0.597              1.973              4.416
 Vibration     2          0.601              1.959              3.750
 Vibration     3          0.610              1.928              3.024
 Vibration     4          0.664              1.759              1.713
 Vibration     5          0.737              1.549              1.111
 Vibration     6          0.769              1.463              0.951
 Vibration     7          0.802              1.379              0.821
 Vibration     8          0.836              1.294              0.710
 Vibration     9          0.878              1.199              0.603
 Vibration    10          0.912              1.126              0.531
 Vibration    11          0.941              1.066              0.478

 Optimization completed.
    -- Stationary point found.
 Normal termination of Gaussian 16 at Mon Nov 13 02:33:10 2023.
