 Gaussian 16, Revision C.01,
 Gaussian 16:  ES64L-G16RevC.01  3-Jul-2019

 -----------------------------------------------------
 # opt 6-31+g(d,p) scrf=(smd,solvent=water) m062x freq
 -----------------------------------------------------

 -------------------
 Title Card Required
 -------------------
 Symbolic Z-matrix:
 Charge = -1 Multiplicity = 2

 SCF Done:  E(UM062X) =  -446.799823331     A.U. after   19 cycles
 SCF Done:  E(UM062X) =  -446.799812843     A.U. after   12 cycles
 SCF Done:  E(UM062X) =  -446.799819023     A.U. after   13 cycles
 SCF Done:  E(UM062X) =  -446.799836749     A.U. after   12 cycles
 SCF Done:  E(UM062X) =  -446.799847801     A.U. after   13 cycles
 SCF Done:  E(UM062X) =  -446.799882273     A.U. after   14 cycles
 SCF Done:  E(UM062X) =  -446.799908602     A.U. after   14 cycles
 SCF Done:  E(UM062X) =  -446.799942113     A.U. after   13 cycles
 SCF Done:  E(UM062X) =  -446.768188857     A.U. after   18 cycles
 SCF Done:  E(UM062X) =  -446.800200990     A.U. after   16 cycles
 SCF Done:  E(UM062X) =  -446.799787895     A.U. after   16 cycles
 SCF Done:  E(UM062X) =  -446.800209552     A.U. after   10 cycles
 SCF Done:  E(UM062X) =  -446.800217506     A.U. after   15 cycles
 SCF Done:  E(UM062X) =  -446.799868486     A.U. after   16 cycles
 SCF Done:  E(UM062X) =  -446.800506333     A.U. after   15 cycles
 SCF Done:  E(UM062X) =  -446.800518637     A.U. after   13 cycles
 SCF Done:  E(UM062X) =  -446.800520638     A.U. after   12 cycles
 SCF Done:  E(UM062X) =  -446.800521611     A.U. after   11 cycles
 SCF Done:  E(UM062X) =  -446.800521791     A.U. after   11 cycles
 Optimization completed.
    -- Stationary point found.
 Normal termination of Gaussian 16 at Wed Nov  8 20:26:36 2023.

 ----------------------------------------------------------------------
 #N Geom=AllCheck Guess=TCheck SCRF=Check GenChk UM062X/6-31+G(d,p) Fre
 q
 ----------------------------------------------------------------------

 Structure from the checkpoint file:  "/home/Tinker/g16/scratch/Gau-3260453.chk"
 -------------------
 Title Card Required
 -------------------
 Charge = -1 Multiplicity = 2

                         Standard orientation:
 ---------------------------------------------------------------------
 Center     Atomic      Atomic             Coordinates (Angstroms)
 Number     Number       Type             X           Y           Z
 ---------------------------------------------------------------------
      1          7           0        0.773693    1.059715    0.003491
      2          7           0       -0.024187   -0.056275   -0.218127
      3          7           0        0.735868   -1.191208   -0.048170
      4          7           0        2.010808   -0.766992    0.087756
      5          6           0        2.035358    0.536427    0.077289
      6          6           0       -1.443117   -0.000945    0.008554
      7          8           0       -2.026593   -1.104926    0.039740
      8          8           0       -1.909925    1.157883    0.095261
      9          1           0        0.548583    1.893810   -0.534374
     10          1           0        2.916837    1.152960    0.164648
 ---------------------------------------------------------------------

 SCF Done:  E(UM062X) =  -446.800521791     A.U. after    1 cycles

 The electronic state is 2-A.
 Alpha  occ. eigenvalues --  -19.61279 -19.61191 -14.85826 -14.84160 -14.81612
 Alpha  occ. eigenvalues --  -14.79776 -10.69217 -10.62319  -1.24726  -1.17951
 Alpha  occ. eigenvalues --   -1.09183  -1.05086  -0.99318  -0.80623  -0.73239
 Alpha  occ. eigenvalues --   -0.69635  -0.61949  -0.58067  -0.55501  -0.54632
 Alpha  occ. eigenvalues --   -0.50916  -0.49923  -0.42835  -0.41320  -0.39592
 Alpha  occ. eigenvalues --   -0.37970  -0.35729  -0.35017  -0.34044  -0.20586
 Alpha virt. eigenvalues --    0.02266   0.04047   0.04427   0.04713   0.05684
 Alpha virt. eigenvalues --    0.06569   0.07024   0.08591   0.10344   0.10716
 Alpha virt. eigenvalues --    0.11198   0.14323   0.15763   0.17117   0.18499

  Beta  occ. eigenvalues --  -19.61225 -19.61142 -14.85415 -14.83821 -14.80862
  Beta  occ. eigenvalues --  -14.79863 -10.69199 -10.62222  -1.23586  -1.17658
  Beta  occ. eigenvalues --   -1.08962  -1.04000  -0.98106  -0.79087  -0.72562
  Beta  occ. eigenvalues --   -0.68824  -0.60846  -0.56686  -0.54452  -0.54232
  Beta  occ. eigenvalues --   -0.50723  -0.48925  -0.41473  -0.38482  -0.37760
  Beta  occ. eigenvalues --   -0.35195  -0.34935  -0.34383  -0.33541
  Beta virt. eigenvalues --   -0.02199   0.02142   0.04356   0.04447   0.04674
  Beta virt. eigenvalues --    0.06498   0.06782   0.07000   0.08877   0.10400
  Beta virt. eigenvalues --    0.11077   0.12158   0.14081   0.15530   0.17087

 Mulliken charges and spin densities:
               1          2
     1  N   -0.416807   0.167186
     2  N    0.002102   0.174808
     3  N   -0.209495   0.510968
     4  N   -0.328647  -0.064456
     5  C    0.027013   0.139021
     6  C    0.759858   0.019390
     7  O   -0.737871   0.025070
     8  O   -0.759387   0.027868
     9  H    0.415811   0.006393
    10  H    0.247423  -0.006249
 Sum of Mulliken charges =  -1.00000   1.00000

 Dipole moment (field-independent basis, Debye):
    X=              9.3654    Y=              6.6476    Z=             -1.4223  Tot=             11.5726
 Quadrupole moment (field-independent basis, Debye-Ang):
   XX=            -69.1784   YY=            -56.7307   ZZ=            -47.1637
   XY=              9.2608   XZ=              0.5312   YZ=             -2.3576

  Exact polarizability:     109.943       1.590     104.799       1.056       0.492      51.607
 Approx polarizability:      84.586       0.864      94.690       0.870       0.630      47.704

                      1                      2                      3
                      A                      A                      A
 Frequencies --     93.8581               114.2509               234.4260
 Red. masses --      8.4953                 8.7107                 7.3713
 Frc consts  --      0.0441                 0.0670                 0.2387
 IR Inten    --      5.6920                12.8480                22.5049

                      4                      5                      6
                      A                      A                      A
 Frequencies --    375.5278               443.3306               498.2231
 Red. masses --      4.2233                 9.7563                 2.0633
 Frc consts  --      0.3509                 1.1298                 0.3018
 IR Inten    --     26.8870                13.7177               224.3188

                      7                      8                      9
                      A                      A                      A
 Frequencies --    576.0281               636.9398               768.5906
 Red. masses --      4.0188                 4.6395                11.7685
 Frc consts  --      0.7857                 1.1090                 4.0960
 IR Inten    --     52.1593                46.6501                99.3939

                     10                     11                     12
                      A                      A                      A
 Frequencies --    785.4642               838.9487               957.5567
 Red. masses --     12.0524                 1.3522                 5.8851
 Frc consts  --      4.3810                 0.5607                 3.1793
 IR Inten    --    175.1771                59.3958                15.6411

                     13                     14                     15
                      A                      A                      A
 Frequencies --    975.4947              1062.9814              1123.8490
 Red. masses --      6.0821                 4.4301                 2.2168
 Frc consts  --      3.4100                 2.9493                 1.6496
 IR Inten    --     10.1563               102.7027               110.3431

                     16                     17                     18
                      A                      A                      A
 Frequencies --   1233.0780              1245.7247              1304.9206
 Red. masses --      2.3518                 6.5576                 2.9169
 Frc consts  --      2.1069                 5.9957                 2.9265
 IR Inten    --      3.7458                72.3281               158.6803

                     19                     20                     21
                      A                      A                      A
 Frequencies --   1336.9861              1426.3217              1577.5455
 Red. masses --     10.7495                 2.3961                 5.6804
 Frc consts  --     11.3212                 2.8720                 8.3290
 IR Inten    --   1345.7121                 1.6773                51.9141

                     22                     23                     24
                      A                      A                      A
 Frequencies --   1664.2810              3332.6101              3572.3801
 Red. masses --     12.8157                 1.1009                 1.0815
 Frc consts  --     20.9145                 7.2037                 8.1319
 IR Inten    --   1439.7276                19.9235               248.4146

 - Thermochemistry -
 -------------------
 Temperature   298.150 Kelvin.  Pressure   1.00000 Atm.
 Atom     1 has atomic number  7 and mass  14.00307

 Molecular mass:   114.01778 amu.
 Principal axes and moments of inertia in atomic units:
                           1         2         3
     Eigenvalues --   337.227871005.516571333.05834
           X            0.99972   0.02386   0.00048
           Y           -0.02386   0.99968  -0.00896
           Z           -0.00069   0.00895   0.99996
 This molecule is an asymmetric top.
 Rotational symmetry number  1.
 Rotational temperatures (Kelvin)      0.25684     0.08614     0.06497
 Rotational constants (GHZ):           5.35170     1.79484     1.35384
 Zero-point vibrational energy     156587.1 (Joules/Mol)
                                   37.42521 (Kcal/Mol)
 Warning -- explicit consideration of   7 degrees of freedom as
           vibrations may cause significant error
 Vibrational temperatures:    135.04   164.38   337.29   540.30   637.85
          (Kelvin)            716.83   828.78   916.41  1105.83  1130.11
                             1207.06  1377.71  1403.52  1529.39  1616.97
                             1774.12  1792.32  1877.49  1923.62  2052.16
                             2269.74  2394.53  4794.88  5139.86

 Zero-point correction=                           0.059641 (Hartree/Particle)
 Thermal correction to Energy=                    0.066015
 Thermal correction to Enthalpy=                  0.066960
 Thermal correction to Gibbs Free Energy=         0.027878
 Sum of electronic and zero-point Energies=           -446.740881
 Sum of electronic and thermal Energies=              -446.734506
 Sum of electronic and thermal Enthalpies=            -446.733562
 Sum of electronic and thermal Free Energies=         -446.772644

                     E (Thermal)             CV                S
                      KCal/Mol        Cal/Mol-Kelvin    Cal/Mol-Kelvin
 Total                   41.425             22.035             82.254
 Electronic               0.000              0.000              1.377
 Translational            0.889              2.981             40.109
 Rotational               0.889              2.981             27.605
 Vibrational             39.648             16.074             13.163
 Vibration     1          0.603              1.954              3.578
 Vibration     2          0.607              1.938              3.195
 Vibration     3          0.654              1.788              1.845
 Vibration     4          0.746              1.522              1.057
 Vibration     5          0.803              1.376              0.816
 Vibration     6          0.854              1.254              0.663
 Vibration     7          0.932              1.083              0.493

 Optimization completed.
    -- Stationary point found.
 Normal termination of Gaussian 16 at Wed Nov  8 20:27:57 2023.
