 Gaussian 16, Revision A.03,
 Gaussian 16:  ES64L-G16RevA.03 25-Dec-2016

 -----------------------------------------------------
 # opt freq 6-31+g(d,p) scrf=(smd,solvent=water) m062x
 -----------------------------------------------------

 ----------
 2-H-1-H-Tz
 ----------
 Symbolic Z-matrix:
 Charge =  1 Multiplicity = 1

 SCF Done:  E(RM062X) =  -431.032583363     A.U. after   14 cycles
 SCF Done:  E(RM062X) =  -431.066494683     A.U. after   13 cycles
 SCF Done:  E(RM062X) =  -431.067780049     A.U. after   14 cycles
 SCF Done:  E(RM062X) =  -431.089293620     A.U. after   13 cycles
 SCF Done:  E(RM062X) =  -431.090399523     A.U. after   12 cycles
 SCF Done:  E(RM062X) =  -431.093529090     A.U. after   12 cycles
 SCF Done:  E(RM062X) =  -431.093618674     A.U. after   11 cycles
 SCF Done:  E(RM062X) =  -431.093567514     A.U. after   11 cycles
 SCF Done:  E(RM062X) =  -431.093652176     A.U. after   11 cycles
 SCF Done:  E(RM062X) =  -431.093653906     A.U. after    9 cycles
 SCF Done:  E(RM062X) =  -431.093654582     A.U. after    9 cycles
 SCF Done:  E(RM062X) =  -431.093654864     A.U. after    8 cycles
 Optimization completed.
    -- Stationary point found.
 Normal termination of Gaussian 16 at Sat May 13 22:13:18 2023.

 ----------------------------------------------------------------------
 #N Geom=AllCheck Guess=TCheck SCRF=Check GenChk RM062X/6-31+G(d,p) Fre
 q
 ----------------------------------------------------------------------

 Structure from the checkpoint file:  "/scratch/gongke2021/2-H-1-H-Tz-PC/Gau-504.chk"
 ----------
 2-H-1-H-Tz
 ----------
 Charge =  1 Multiplicity = 1

                         Standard orientation:
 ---------------------------------------------------------------------
 Center     Atomic      Atomic             Coordinates (Angstroms)
 Number     Number       Type             X           Y           Z
 ---------------------------------------------------------------------
      1          7           0       -0.669029   -1.069677   -0.000103
      2          7           0       -1.913911   -0.719774   -0.000061
      3          6           0       -2.103381    0.623422    0.000104
      4          6           0       -0.843299    1.154270    0.000016
      5          7           0       -0.020024    0.070396    0.000003
      6          1           0       -3.083133    1.074208    0.000187
      7          1           0       -0.473968    2.168276    0.000037
      8          1           0       -2.629251   -1.449983   -0.000093
      9          1           0        1.411064   -1.830490    0.000175
     10          6           0        1.438679    0.103242    0.000010
     11          8           0        2.018965   -1.066135    0.000097
     12          8           0        1.986539    1.164356   -0.000092
 ---------------------------------------------------------------------

 SCF Done:  E(RM062X) =  -431.093654864     A.U. after    1 cycles

 The electronic state is 1-A.
 Alpha  occ. eigenvalues --  -19.74051 -19.69391 -14.93772 -14.93016 -14.91909
 Alpha  occ. eigenvalues --  -10.78369 -10.65225 -10.64823  -1.33756  -1.29101
 Alpha  occ. eigenvalues --   -1.21066  -1.11432  -0.99441  -0.86992  -0.80602
 Alpha  occ. eigenvalues --   -0.75967  -0.71488  -0.68067  -0.65288  -0.59979
 Alpha  occ. eigenvalues --   -0.58210  -0.57545  -0.56854  -0.52016  -0.48350
 Alpha  occ. eigenvalues --   -0.46066  -0.43674  -0.43376  -0.38470
 Alpha virt. eigenvalues --   -0.06391   0.01086   0.01195   0.02939   0.04053
 Alpha virt. eigenvalues --    0.04174   0.05543   0.05849   0.06623   0.06869
 Alpha virt. eigenvalues --    0.08700   0.10229   0.11562   0.11770   0.12878

 Mulliken charges:
               1
     1  N    0.047623
     2  N   -0.267675
     3  C   -0.077980
     4  C   -0.079770
     5  N   -0.055526
     6  H    0.300405
     7  H    0.304599
     8  H    0.466022
     9  H    0.478637
    10  C    0.811061
    11  O   -0.471407
    12  O   -0.455987
 Sum of Mulliken charges =   1.00000

 Dipole moment (field-independent basis, Debye):
    X=            -10.1329    Y=             -2.5038    Z=              0.0006  Tot=             10.4377
 Quadrupole moment (field-independent basis, Debye-Ang):
   XX=            -26.8933   YY=            -32.4073   ZZ=            -43.6948
   XY=             -3.2271   XZ=              0.0003   YZ=              0.0002

  Exact polarizability:  90.512   3.202  88.691  -0.001   0.000  39.986
 Approx polarizability:  80.513   3.441  87.941  -0.001   0.001  39.201

                      1                      2                      3
                      A                      A                      A
 Frequencies --    115.9745               187.5460               238.2664
 Red. masses --      6.1101                 6.5588                 5.9431
 Frc consts  --      0.0484                 0.1359                 0.1988
 IR Inten    --      8.3896                 0.0794                20.8680

                      4                      5                      6
                      A                      A                      A
 Frequencies --    444.1148               537.9116               548.7368
 Red. masses --      7.9356                 1.1192                 6.7712
 Frc consts  --      0.9222                 0.1908                 1.2013
 IR Inten    --      0.6244               253.7250                12.9452

                      7                      8                      9
                      A                      A                      A
 Frequencies --    633.0130               699.6307               741.3178
 Red. masses --      3.0762                 9.2118                 7.8179
 Frc consts  --      0.7263                 2.6566                 2.5313
 IR Inten    --      7.2507                 1.3089                98.7313

                     10                     11                     12
                      A                      A                      A
 Frequencies --    755.2295               769.2575               840.0083
 Red. masses --      1.4252                 3.4603                 1.2877
 Frc consts  --      0.4790                 1.2064                 0.5354
 IR Inten    --    234.4502                 4.5617                31.9411

                     13                     14                     15
                      A                      A                      A
 Frequencies --    943.3866               979.9755              1042.8741
 Red. masses --      1.3709                 4.9722                 2.4650
 Frc consts  --      0.7188                 2.8134                 1.5796
 IR Inten    --      0.0785                 3.6685                40.0641

                     16                     17                     18
                      A                      A                      A
 Frequencies --   1094.2897              1136.5708              1238.9676
 Red. masses --      1.3086                 2.1196                 2.5149
 Frc consts  --      0.9233                 1.6132                 2.2745
 IR Inten    --    101.8574                13.0421                65.2915

                     19                     20                     21
                      A                      A                      A
 Frequencies --   1269.2639              1299.9644              1356.4972
 Red. masses --      1.5496                 2.3232                 6.5206
 Frc consts  --      1.4709                 2.3132                 7.0693
 IR Inten    --    174.2266               410.2191               684.7825

                     22                     23                     24
                      A                      A                      A
 Frequencies --   1445.6608              1459.5146              1507.6950
 Red. masses --      4.4882                 3.5455                 5.0162
 Frc consts  --      5.5266                 4.4499                 6.7181
 IR Inten    --     43.1804               154.6404                39.3836

                     25                     26                     27
                      A                      A                      A
 Frequencies --   1624.3132              1901.6770              3334.1997
 Red. masses --      3.8267                10.6675                 1.0985
 Frc consts  --      5.9486                22.7292                 7.1952
 IR Inten    --     22.8773               935.6762                77.0411

                     28                     29                     30
                      A                      A                      A
 Frequencies --   3349.1369              3556.1437              3727.5075
 Red. masses --      1.1140                 1.0889                 1.0672
 Frc consts  --      7.3618                 8.1133                 8.7360
 IR Inten    --     72.9687               505.3303               395.2985

 - Thermochemistry -
 -------------------
 Temperature   298.150 Kelvin.  Pressure   1.00000 Atm.
 Atom     1 has atomic number  7 and mass  14.00307

 Molecular mass:   114.03035 amu.
 Principal axes and moments of inertia in atomic units:
                           1         2         3
     Eigenvalues --   340.464131039.122931379.58705
           X            0.99988  -0.01580  -0.00000
           Y            0.01580   0.99988   0.00000
           Z            0.00000  -0.00000   1.00000
 This molecule is an asymmetric top.
 Rotational symmetry number  1.
 Rotational temperatures (Kelvin)      0.25440     0.08335     0.06278
 Rotational constants (GHZ):           5.30083     1.73679     1.30817
 Zero-point vibrational energy     231947.8 (Joules/Mol)
                                   55.43686 (Kcal/Mol)
 Warning -- explicit consideration of   6 degrees of freedom as
           vibrations may cause significant error
 Vibrational temperatures:    166.86   269.84   342.81   638.98   773.93
          (Kelvin)            789.51   910.76  1006.61  1066.59  1086.61
                             1106.79  1208.58  1357.32  1409.97  1500.46
                             1574.44  1635.27  1782.60  1826.19  1870.36
                             1951.70  2079.98  2099.92  2169.24  2337.02
                             2736.09  4797.17  4818.66  5116.50  5363.05

 Zero-point correction=                           0.088344 (Hartree/Particle)
 Thermal correction to Energy=                    0.094454
 Thermal correction to Enthalpy=                  0.095398
 Thermal correction to Gibbs Free Energy=         0.057789
 Sum of electronic and zero-point Energies=           -431.005311
 Sum of electronic and thermal Energies=              -430.999201
 Sum of electronic and thermal Enthalpies=            -430.998257
 Sum of electronic and thermal Free Energies=         -431.035866

                     E (Thermal)             CV                S
                      KCal/Mol        Cal/Mol-Kelvin    Cal/Mol-Kelvin
 Total                   59.271             22.422             79.155
 Electronic               0.000              0.000              0.000
 Translational            0.889              2.981             40.109
 Rotational               0.889              2.981             27.681
 Vibrational             57.493             16.461             11.365
 Vibration     1          0.608              1.936              3.166
 Vibration     2          0.632              1.857              2.252
 Vibration     3          0.656              1.782              1.816
 Vibration     4          0.804              1.374              0.814
 Vibration     5          0.893              1.166              0.570
 Vibration     6          0.904              1.142              0.547

 Optimization completed.
    -- Stationary point found.
 Normal termination of Gaussian 16 at Sat May 13 22:14:03 2023.
