 Gaussian 16, Revision A.03,
 Gaussian 16:  ES64L-G16RevA.03 25-Dec-2016

 -----------------------------------------------------
 # opt freq 6-31+g(d,p) scrf=(smd,solvent=water) m062x
 -----------------------------------------------------

 ----
 test
 ----
 Symbolic Z-matrix:
 Charge =  0 Multiplicity = 1

 SCF Done:  E(RM062X) =  -583.509110397     A.U. after   14 cycles
 SCF Done:  E(RM062X) =  -583.509110114     A.U. after    8 cycles
 SCF Done:  E(RM062X) =  -583.509107178     A.U. after    9 cycles
 SCF Done:  E(RM062X) =  -583.509110205     A.U. after    9 cycles
 SCF Done:  E(RM062X) =  -583.509110359     A.U. after    8 cycles
 SCF Done:  E(RM062X) =  -583.509110331     A.U. after    8 cycles
 SCF Done:  E(RM062X) =  -583.509110220     A.U. after    8 cycles
 SCF Done:  E(RM062X) =  -583.509110296     A.U. after    7 cycles
 Optimization completed.
    -- Stationary point found.
 Normal termination of Gaussian 16 at Thu Oct 19 13:32:40 2023.

 ----------------------------------------------------------------------
 #N Geom=AllCheck Guess=TCheck SCRF=Check GenChk RM062X/6-31+G(d,p) Fre
 q
 ----------------------------------------------------------------------

 Structure from the checkpoint file:  "/scratch/gongke2021/PC-2-N/Gau-16033.chk"
 ----
 test
 ----
 Charge =  0 Multiplicity = 1

                         Standard orientation:
 ---------------------------------------------------------------------
 Center     Atomic      Atomic             Coordinates (Angstroms)
 Number     Number       Type             X           Y           Z
 ---------------------------------------------------------------------
      1          7           0       -0.958389    0.172856   -0.039702
      2          7           0        0.194187    0.647236   -0.510722
      3          6           0        0.030299    1.957241   -0.492946
      4          6           0       -1.262780    2.237500    0.004147
      5          7           0       -1.865723    1.095883    0.279223
      6          1           0        0.806621    2.629636   -0.827810
      7          1           0       -1.751830    3.186653    0.162640
      8          1           0        2.540278    1.464517    0.728018
      9          6           0       -1.229919   -1.229002    0.092428
     10          8           0       -2.346511   -1.586063    0.406054
     11          8           0       -0.236527   -2.018459   -0.154818
     12          8           0        2.138367   -1.501453   -0.421890
     13          1           0        0.766621   -1.657126   -0.271674
     14          1           0        2.615874   -2.224862    0.009314
     15          8           0        3.170377    0.731004    0.708917
     16          1           0        2.478661   -0.661569   -0.024572
     17          1           0        3.921998    1.056260    0.194617
 ---------------------------------------------------------------------

 SCF Done:  E(RM062X) =  -583.509110296     A.U. after    1 cycles

 The electronic state is 1-A.
 Alpha  occ. eigenvalues --  -19.68352 -19.66615 -19.66288 -19.65454 -14.89733
 Alpha  occ. eigenvalues --  -14.82641 -14.82485 -10.74296 -10.59663 -10.59539
 Alpha  occ. eigenvalues --   -1.27463  -1.22472  -1.16594  -1.14965  -1.13819
 Alpha  occ. eigenvalues --   -1.02253  -0.96130  -0.77212  -0.73425  -0.71066
 Alpha  occ. eigenvalues --   -0.65571  -0.62555  -0.61463  -0.60293  -0.57328
 Alpha  occ. eigenvalues --   -0.55450  -0.53468  -0.52717  -0.51853  -0.48693
 Alpha  occ. eigenvalues --   -0.45910  -0.42442  -0.41961  -0.41564  -0.40307
 Alpha  occ. eigenvalues --   -0.39646  -0.38502  -0.37473  -0.34690
 Alpha virt. eigenvalues --   -0.02005   0.01692   0.03542   0.03945   0.04530
 Alpha virt. eigenvalues --    0.06184   0.06285   0.06440   0.08209   0.08360
 Alpha virt. eigenvalues --    0.09471   0.10438   0.10755   0.10995   0.12476

 Mulliken charges:
               1
     1  N   -0.062430
     2  N   -0.300767
     3  C   -0.137138
     4  C   -0.141093
     5  N   -0.189192
     6  H    0.237386
     7  H    0.237167
     8  H    0.440140
     9  C    0.829762
    10  O   -0.559247
    11  O   -0.603135
    12  O   -0.882011
    13  H    0.565792
    14  H    0.462509
    15  O   -0.854750
    16  H    0.506514
    17  H    0.450493
 Sum of Mulliken charges =  -0.00000

 Dipole moment (field-independent basis, Debye):
    X=             10.1437    Y=              7.4449    Z=             -0.6392  Tot=             12.5988
 Quadrupole moment (field-independent basis, Debye-Ang):
   XX=            -56.6530   YY=            -47.5183   ZZ=            -62.8451
   XY=             -6.4777   XZ=              2.7319   YZ=             -2.0712

  Exact polarizability: 113.418   6.081 127.008 -14.410  -3.410  68.684
 Approx polarizability: 101.869   3.878 107.835 -13.532  -2.659  63.043

                      1                      2                      3
                      A                      A                      A
 Frequencies --     28.7155                36.5886               101.3932
 Red. masses --      6.9364                 5.1602                 4.6976
 Frc consts  --      0.0034                 0.0041                 0.0285
 IR Inten    --      0.2117                 5.6492                 3.6683

                      4                      5                      6
                      A                      A                      A
 Frequencies --    115.4538               128.7090               156.8258
 Red. masses --      6.1713                 6.3249                 1.7024
 Frc consts  --      0.0485                 0.0617                 0.0247
 IR Inten    --     10.2831                 8.6347                41.5456

                      7                      8                      9
                      A                      A                      A
 Frequencies --    167.1834               188.6840               254.3548
 Red. masses --      2.4011                 4.7819                 5.7835
 Frc consts  --      0.0395                 0.1003                 0.2205
 IR Inten    --     59.6630                99.9883                50.9058

                     10                     11                     12
                      A                      A                      A
 Frequencies --    294.7460               343.0467               353.0467
 Red. masses --      1.1730                 2.5600                 1.4702
 Frc consts  --      0.0600                 0.1775                 0.1080
 IR Inten    --    331.4513                35.8316               209.8736

                     13                     14                     15
                      A                      A                      A
 Frequencies --    437.9616               469.6465               557.7443
 Red. masses --      1.1840                 4.4584                 2.6030
 Frc consts  --      0.1338                 0.5794                 0.4771
 IR Inten    --    168.6918               110.8646               106.5219

                     16                     17                     18
                      A                      A                      A
 Frequencies --    597.0695               668.1960               675.1196
 Red. masses --      1.6459                11.6520                 3.5482
 Frc consts  --      0.3457                 3.0652                 0.9529
 IR Inten    --    135.8620                14.8920                 0.3373

                     19                     20                     21
                      A                      A                      A
 Frequencies --    756.0777               767.9568               823.0794
 Red. masses --      8.0416                10.5870                 1.0694
 Frc consts  --      2.7085                 3.6787                 0.4269
 IR Inten    --    351.6568               102.7552                78.6067

                     22                     23                     24
                      A                      A                      A
 Frequencies --    875.7317               938.4481               955.8019
 Red. masses --      1.1818                 1.4142                 7.5020
 Frc consts  --      0.5340                 0.7338                 4.0380
 IR Inten    --     76.0216                 0.0628                36.1898

                     25                     26                     27
                      A                      A                      A
 Frequencies --    995.9780              1084.0902              1106.6414
 Red. masses --      3.9673                 1.7480                 1.0654
 Frc consts  --      2.3187                 1.2104                 0.7687
 IR Inten    --     98.2678                50.0625               310.9948

                     28                     29                     30
                      A                      A                      A
 Frequencies --   1209.2717              1273.5556              1313.3680
 Red. masses --      1.4413                 4.8836                 1.7779
 Frc consts  --      1.2418                 4.6669                 1.8069
 IR Inten    --     35.3696                88.1000              1967.3437

                     31                     32                     33
                      A                      A                      A
 Frequencies --   1335.5076              1361.7703              1395.8714
 Red. masses --      2.9815                 5.9165                 4.6382
 Frc consts  --      3.1331                 6.4643                 5.3247
 IR Inten    --    733.3210                12.1218               536.9262

                     34                     35                     36
                      A                      A                      A
 Frequencies --   1486.5171              1576.0651              1579.4642
 Red. masses --      4.9214                 1.1773                 4.1216
 Frc consts  --      6.4073                 1.7229                 6.0581
 IR Inten    --     23.6701               161.6970                18.7506

                     37                     38                     39
                      A                      A                      A
 Frequencies --   1620.9413              1792.7905              2065.0337
 Red. masses --      1.0764                 7.4133                 1.1558
 Frc consts  --      1.6663                14.0385                 2.9039
 IR Inten    --    232.9067              1356.4354              2843.6511

                     40                     41                     42
                      A                      A                      A
 Frequencies --   3309.1443              3324.4443              3334.3662
 Red. masses --      1.0965                 1.1046                 1.0680
 Frc consts  --      7.0742                 7.1929                 6.9957
 IR Inten    --      3.5415                 7.1335              1342.6840

                     43                     44                     45
                      A                      A                      A
 Frequencies --   3831.5468              3863.6627              3924.4010
 Red. masses --      1.0461                 1.0669                 1.0818
 Frc consts  --      9.0483                 9.3841                 9.8159
 IR Inten    --     78.0988               196.3540               253.6717

 - Thermochemistry -
 -------------------
 Temperature   298.150 Kelvin.  Pressure   1.00000 Atm.
 Atom     1 has atomic number  7 and mass  14.00307

 Molecular mass:   149.04366 amu.
 Principal axes and moments of inertia in atomic units:
                           1         2         3
     Eigenvalues --  1245.615551728.592622809.57612
           X            0.99956  -0.02950   0.00334
           Y            0.02950   0.99956   0.00026
           Z           -0.00335  -0.00016   0.99999
 This molecule is an asymmetric top.
 Rotational symmetry number  1.
 Warning -- assumption of classical behavior for rotation
           may cause significant error
 Rotational temperatures (Kelvin)      0.06954     0.05011     0.03083
 Rotational constants (GHZ):           1.44887     1.04405     0.64235
 Zero-point vibrational energy     319857.6 (Joules/Mol)
                                   76.44780 (Kcal/Mol)
 Warning -- explicit consideration of  16 degrees of freedom as
           vibrations may cause significant error
 Vibrational temperatures:     41.32    52.64   145.88   166.11   185.18
          (Kelvin)            225.64   240.54   271.47   365.96   424.07
                              493.57   507.96   630.13   675.72   802.47
                              859.05   961.38   971.35  1087.83  1104.92
                             1184.23  1259.98  1350.22  1375.19  1432.99
                             1559.76  1592.21  1739.87  1832.36  1889.64
                             1921.50  1959.28  2008.35  2138.77  2267.61
                             2272.50  2332.17  2579.43  2971.12  4761.12
                             4783.13  4797.41  5512.74  5558.95  5646.34

 Zero-point correction=                           0.121827 (Hartree/Particle)
 Thermal correction to Energy=                    0.133670
 Thermal correction to Enthalpy=                  0.134614
 Thermal correction to Gibbs Free Energy=         0.082579
 Sum of electronic and zero-point Energies=           -583.387283
 Sum of electronic and thermal Energies=              -583.375440
 Sum of electronic and thermal Enthalpies=            -583.374496
 Sum of electronic and thermal Free Energies=         -583.426532

                     E (Thermal)             CV                S
                      KCal/Mol        Cal/Mol-Kelvin    Cal/Mol-Kelvin
 Total                   83.879             40.146            109.517
 Electronic               0.000              0.000              0.000
 Translational            0.889              2.981             40.908
 Rotational               0.889              2.981             30.182
 Vibrational             82.102             34.184             38.428
 Vibration     1          0.593              1.984              5.916
 Vibration     2          0.594              1.982              5.436
 Vibration     3          0.604              1.948              3.427
 Vibration     4          0.608              1.937              3.175
 Vibration     5          0.611              1.925              2.965
 Vibration     6          0.620              1.895              2.588
 Vibration     7          0.624              1.883              2.467
 Vibration     8          0.633              1.855              2.241
 Vibration     9          0.665              1.755              1.700
 Vibration    10          0.689              1.684              1.447
 Vibration    11          0.722              1.589              1.198
 Vibration    12          0.729              1.569              1.153
 Vibration    13          0.798              1.387              0.833
 Vibration    14          0.827              1.317              0.739
 Vibration    15          0.913              1.123              0.528
 Vibration    16          0.955              1.038              0.455

                           ! Non-Optimized Parameters !
 Normal termination of Gaussian 16 at Thu Oct 19 13:34:09 2023.
