 Gaussian 16, Revision A.03,
 Gaussian 16:  ES64L-G16RevA.03 25-Dec-2016

 -----------------------------------------------------
 # opt freq 6-31+g(d,p) m062x scrf=(SMD,solvent=water)
 -----------------------------------------------------

 ----------
 2-H-1-H-Tz
 ----------
 Symbolic Z-matrix:
 Charge =  1 Multiplicity = 1

 SCF Done:  E(RM062X) =  -242.566230253     A.U. after   13 cycles
 SCF Done:  E(RM062X) =  -242.579913820     A.U. after   12 cycles
 SCF Done:  E(RM062X) =  -242.581844848     A.U. after   11 cycles
 SCF Done:  E(RM062X) =  -242.582076715     A.U. after   10 cycles
 SCF Done:  E(RM062X) =  -242.582083487     A.U. after    9 cycles
 SCF Done:  E(RM062X) =  -242.582083391     A.U. after    8 cycles
 Optimization completed.
    -- Stationary point found.
 Normal termination of Gaussian 16 at Sun Jul 16 00:55:51 2023.

 ----------------------------------------------------------------------
 #N Geom=AllCheck Guess=TCheck SCRF=Check GenChk RM062X/6-31+G(d,p) Fre
 q
 ----------------------------------------------------------------------

 Structure from the checkpoint file:  "/scratch/gongke2021/2-H-1-H-Tz/Gau-4270.chk"
 ----------
 2-H-1-H-Tz
 ----------
 Charge =  1 Multiplicity = 1

                         Standard orientation:
 ---------------------------------------------------------------------
 Center     Atomic      Atomic             Coordinates (Angstroms)
 Number     Number       Type             X           Y           Z
 ---------------------------------------------------------------------
      1          7           0       -0.903429   -0.560886    0.000068
      2          7           0       -0.761744    0.752939    0.000150
      3          6           0        0.539420    1.030466    0.000067
      4          6           0        1.168650   -0.211121   -0.000151
      5          7           0        0.237802   -1.174121   -0.000190
      6          1           0        0.910413    2.043737    0.000151
      7          1           0        2.221427   -0.441680   -0.000290
      8          1           0       -1.572474    1.375336    0.000377
      9          1           0       -1.816188   -1.018984    0.000067
 ---------------------------------------------------------------------

 SCF Done:  E(RM062X) =  -242.582083391     A.U. after    1 cycles

 The electronic state is 1-A.
 Alpha  occ. eigenvalues --  -14.94010 -14.92232 -14.86242 -10.64557 -10.61958
 Alpha  occ. eigenvalues --   -1.31109  -1.08906  -0.99127  -0.79049  -0.77885
 Alpha  occ. eigenvalues --   -0.75451  -0.62578  -0.61003  -0.56878  -0.54581
 Alpha  occ. eigenvalues --   -0.43512  -0.43052  -0.37909
 Alpha virt. eigenvalues --   -0.03122   0.01886   0.03808   0.04331   0.04525
 Alpha virt. eigenvalues --    0.06535   0.06747   0.07003   0.08765   0.11103
 Alpha virt. eigenvalues --    0.13236   0.13370   0.14409   0.16444   0.19127

 Mulliken charges:
               1
     1  N   -0.098697
     2  N   -0.110766
     3  C   -0.040456
     4  C   -0.153719
     5  N   -0.080582
     6  H    0.294034
     7  H    0.263056
     8  H    0.462051
     9  H    0.465079
 Sum of Mulliken charges =   1.00000

 Dipole moment (field-independent basis, Debye):
    X=             -3.6981    Y=              3.9345    Z=              0.0010  Tot=              5.3996
 Quadrupole moment (field-independent basis, Debye-Ang):
   XX=            -11.0866   YY=            -20.7841   ZZ=            -29.0437
   XY=              1.1151   XZ=             -0.0019   YZ=              0.0010

  Exact polarizability:  59.276   2.125  58.082  -0.003   0.003  28.874
 Approx polarizability:  58.239   1.985  57.368  -0.003   0.003  28.208

                      1                      2                      3
                      A                      A                      A
 Frequencies --    607.2664               646.8179               679.5496
 Red. masses --      2.0301                 2.6841                 1.1393
 Frc consts  --      0.4411                 0.6616                 0.3100
 IR Inten    --     42.6187                58.2301               225.9289

                      4                      5                      6
                      A                      A                      A
 Frequencies --    707.6231               860.8290               941.5848
 Red. masses --      2.3765                 1.1782                 1.3890
 Frc consts  --      0.7011                 0.5144                 0.7256
 IR Inten    --     54.7091                70.3366                 0.3805

                      7                      8                      9
                      A                      A                      A
 Frequencies --    951.6510               989.2530              1096.5563
 Red. masses --      5.8343                 3.2614                 1.5433
 Frc consts  --      3.1131                 1.8805                 1.0933
 IR Inten    --     24.0965                 7.6373                25.3655

                     10                     11                     12
                      A                      A                      A
 Frequencies --   1135.1113              1191.2355              1262.0211
 Red. masses --      1.3634                 1.8487                 4.4640
 Frc consts  --      1.0351                 1.5456                 4.1890
 IR Inten    --    135.3063                55.8031                 4.1178

                     13                     14                     15
                      A                      A                      A
 Frequencies --   1313.8074              1420.5714              1517.4819
 Red. masses --      1.6137                 2.7032                 5.5185
 Frc consts  --      1.6411                 3.2140                 7.4872
 IR Inten    --     50.5348                 8.6518                 1.8805

                     16                     17                     18
                      A                      A                      A
 Frequencies --   1534.4216              1618.6828              3337.4878
 Red. masses --      2.6807                 2.6116                 1.0993
 Frc consts  --      3.7186                 4.0317                 7.2147
 IR Inten    --     40.5378                22.7734                41.8060

                     19                     20                     21
                      A                      A                      A
 Frequencies --   3350.5260              3539.0228              3570.0541
 Red. masses --      1.1088                 1.0893                 1.0895
 Frc consts  --      7.3340                 8.0386                 8.1815
 IR Inten    --     43.1248               464.9222               715.4278

 - Thermochemistry -
 -------------------
 Temperature   298.150 Kelvin.  Pressure   1.00000 Atm.
 Atom     1 has atomic number  7 and mass  14.00307

 Molecular mass:    70.04052 amu.
 Principal axes and moments of inertia in atomic units:
                           1         2         3
     Eigenvalues --   183.73861 187.94154 371.68016
           X           -0.58225   0.81301   0.00011
           Y            0.81301   0.58225  -0.00012
           Z            0.00016  -0.00002   1.00000
 This molecule is an asymmetric top.
 Rotational symmetry number  1.
 Rotational temperatures (Kelvin)      0.47140     0.46086     0.23303
 Rotational constants (GHZ):           9.82233     9.60267     4.85563
 Zero-point vibrational energy     193026.8 (Joules/Mol)
                                   46.13450 (Kcal/Mol)
 Warning -- explicit consideration of   1 degrees of freedom as
           vibrations may cause significant error
 Vibrational temperatures:    873.72   930.63   977.72  1018.11  1238.54
          (Kelvin)           1354.73  1369.21  1423.31  1577.70  1633.17
                             1713.92  1815.77  1890.28  2043.89  2183.32
                             2207.69  2328.92  4801.90  4820.66  5091.86
                             5136.51

 Zero-point correction=                           0.073520 (Hartree/Particle)
 Thermal correction to Energy=                    0.077173
 Thermal correction to Enthalpy=                  0.078118
 Thermal correction to Gibbs Free Energy=         0.047272
 Sum of electronic and zero-point Energies=           -242.508563
 Sum of electronic and thermal Energies=              -242.504910
 Sum of electronic and thermal Enthalpies=            -242.503966
 Sum of electronic and thermal Free Energies=         -242.534811

                     E (Thermal)             CV                S
                      KCal/Mol        Cal/Mol-Kelvin    Cal/Mol-Kelvin
 Total                   48.427             12.758             64.919
 Electronic               0.000              0.000              0.000
 Translational            0.889              2.981             38.657
 Rotational               0.889              2.981             24.066
 Vibrational             46.650              6.797              2.197
 Vibration     1          0.966              1.016              0.437

 Optimization completed.
    -- Stationary point found.
 Normal termination of Gaussian 16 at Sun Jul 16 00:56:14 2023.
