 Gaussian 16, Revision A.03,
 Gaussian 16:  ES64L-G16RevA.03 25-Dec-2016

 -----------------------------------------------------
 # opt freq 6-31+g(d,p) m062x scrf=(SMD,solvent=water)
 -----------------------------------------------------

 ----------
 "Sketch 2"
 ----------
 Symbolic Z-matrix:
 Charge = -1 Multiplicity = 2

 SCF Done:  E(UM062X) =  -430.748743790     A.U. after   17 cycles
 SCF Done:  E(UM062X) =  -430.760576558     A.U. after   16 cycles
 SCF Done:  E(UM062X) =  -430.762013899     A.U. after   14 cycles
 SCF Done:  E(UM062X) =  -430.762086172     A.U. after   12 cycles
 SCF Done:  E(UM062X) =  -430.762099337     A.U. after   11 cycles
 SCF Done:  E(UM062X) =  -430.762100659     A.U. after   11 cycles
 Optimization completed.
    -- Stationary point found.
 Normal termination of Gaussian 16 at Sat Jul  1 04:53:36 2023.

 ----------------------------------------------------------------------
 #N Geom=AllCheck Guess=TCheck SCRF=Check GenChk UM062X/6-31+G(d,p) Fre
 q
 ----------------------------------------------------------------------

 Structure from the checkpoint file:  "/scratch/gongke2021/1-H-Tz-1-eletron/Gau-20957.chk"
 ----------
 "Sketch 2"
 ----------
 Charge = -1 Multiplicity = 2

                         Standard orientation:
 ---------------------------------------------------------------------
 Center     Atomic      Atomic             Coordinates (Angstroms)
 Number     Number       Type             X           Y           Z
 ---------------------------------------------------------------------
      1          7           0        0.017961   -0.075357    0.000043
      2          7           0        0.697902    1.129618    0.000164
      3          6           0        1.994881    0.723738    0.000006
      4          6           0        2.062157   -0.656339    0.000190
      5          7           0        0.815659   -1.198683   -0.000032
      6          1           0        2.795813    1.448627   -0.000014
      7          1           0        2.933910   -1.294408    0.000264
      8          1           0       -1.254075    1.788493    0.000036
      9          6           0       -1.330157   -0.124118   -0.000078
     10          8           0       -1.937677    1.092432   -0.000009
     11          8           0       -2.007021   -1.166363   -0.000269
 ---------------------------------------------------------------------

 SCF Done:  E(UM062X) =  -430.762100659     A.U. after    1 cycles

 The electronic state is 2-A.
 Alpha  occ. eigenvalues --  -19.68187 -19.62182 -14.85615 -14.77202 -14.76934
 Alpha  occ. eigenvalues --  -10.69506 -10.55760 -10.55605  -1.23634  -1.16758
 Alpha  occ. eigenvalues --   -1.12651  -0.96439  -0.93576  -0.75408  -0.68466
 Alpha  occ. eigenvalues --   -0.67551  -0.61441  -0.57197  -0.53890  -0.52401
 Alpha  occ. eigenvalues --   -0.49034  -0.48847  -0.46868  -0.40182  -0.39321
 Alpha  occ. eigenvalues --   -0.37286  -0.35448  -0.35199  -0.33392  -0.15286
 Alpha virt. eigenvalues --    0.02294   0.04102   0.04508   0.05330   0.06750
 Alpha virt. eigenvalues --    0.06857   0.07588   0.09268   0.09848   0.10636
 Alpha virt. eigenvalues --    0.10995   0.12028   0.13330   0.15398   0.16474

  Beta  occ. eigenvalues --  -19.68136 -19.61963 -14.85627 -14.76737 -14.76467
  Beta  occ. eigenvalues --  -10.69359 -10.55724 -10.55582  -1.23166  -1.16137
  Beta  occ. eigenvalues --   -1.12076  -0.94989  -0.92846  -0.74578  -0.68066
  Beta  occ. eigenvalues --   -0.67197  -0.60460  -0.55623  -0.53369  -0.52112
  Beta  occ. eigenvalues --   -0.48643  -0.47260  -0.46544  -0.38442  -0.38313
  Beta  occ. eigenvalues --   -0.36837  -0.34367  -0.31406  -0.30760
  Beta virt. eigenvalues --    0.00233   0.02053   0.04133   0.04264   0.05053
  Beta virt. eigenvalues --    0.06590   0.06664   0.08462   0.08957   0.09157
  Beta virt. eigenvalues --    0.11187   0.11231   0.12915   0.13767   0.15017

 Mulliken charges and spin densities:
               1          2
     1  N   -0.078234  -0.065851
     2  N   -0.434638   0.320259
     3  C   -0.200221   0.075584
     4  C   -0.179022   0.053323
     5  N   -0.390681   0.331103
     6  H    0.199227  -0.004122
     7  H    0.197060  -0.003393
     8  H    0.440794  -0.001897
     9  C    0.736893   0.182537
    10  O   -0.566417   0.015025
    11  O   -0.724760   0.097432
 Sum of Mulliken charges =  -1.00000   1.00000

 Dipole moment (field-independent basis, Debye):
    X=              5.5828    Y=              4.6851    Z=              0.0006  Tot=              7.2882
 Quadrupole moment (field-independent basis, Debye-Ang):
   XX=            -60.5791   YY=            -57.6417   ZZ=            -50.1602
   XY=             -5.6355   XZ=             -0.0016   YZ=             -0.0020

  Exact polarizability: 157.197   9.314 112.127   0.007   0.001  59.236
 Approx polarizability: 111.093   5.786  96.588   0.004   0.001  52.236

                      1                      2                      3
                      A                      A                      A
 Frequencies --    127.9301               143.9724               244.5557
 Red. masses --      5.7717                 7.2407                 6.2395
 Frc consts  --      0.0557                 0.0884                 0.2199
 IR Inten    --     18.5718                 1.2175                19.0958

                      4                      5                      6
                      A                      A                      A
 Frequencies --    411.0901               453.0028               483.6221
 Red. masses --      1.1516                 7.4553                13.0368
 Frc consts  --      0.1147                 0.9014                 1.7965
 IR Inten    --    198.7895                 3.7010                27.2566

                      7                      8                      9
                      A                      A                      A
 Frequencies --    566.0694               607.4732               630.3446
 Red. masses --      7.7961                 4.2066                11.3496
 Frc consts  --      1.4719                 0.9146                 2.6570
 IR Inten    --     45.4655                 0.3784                16.1334

                     10                     11                     12
                      A                      A                      A
 Frequencies --    721.1339               766.8013               863.0143
 Red. masses --     10.6563                 1.1834                 1.2969
 Frc consts  --      3.2651                 0.4100                 0.5691
 IR Inten    --     24.7447               126.1070                 1.0285

                     13                     14                     15
                      A                      A                      A
 Frequencies --    868.3324               953.2837              1082.0232
 Red. masses --      6.5143                 7.6781                 5.0356
 Frc consts  --      2.8939                 4.1110                 3.4736
 IR Inten    --     40.2570                28.1310               413.9511

                     16                     17                     18
                      A                      A                      A
 Frequencies --   1115.1497              1137.6002              1223.4784
 Red. masses --      1.3251                 1.9237                10.2841
 Frc consts  --      0.9709                 1.4668                 9.0700
 IR Inten    --     25.6008               197.3861                15.4407

                     19                     20                     21
                      A                      A                      A
 Frequencies --   1266.5372              1286.0140              1416.0722
 Red. masses --      1.4977                 5.2343                 2.6412
 Frc consts  --      1.4155                 5.1004                 3.1204
 IR Inten    --    498.6077                 7.7246               162.1058

                     22                     23                     24
                      A                      A                      A
 Frequencies --   1462.9580              1534.0654              1707.2951
 Red. masses --      9.3504                 4.8211                 8.3375
 Frc consts  --     11.7908                 6.6848                14.3187
 IR Inten    --    214.6443                40.9168              1957.0082

                     25                     26                     27
                      A                      A                      A
 Frequencies --   3291.8741              3310.8762              3701.6168
 Red. masses --      1.0898                 1.1057                 1.0654
 Frc consts  --      6.9583                 7.1413                 8.6008
 IR Inten    --      1.1520                 4.4917               192.9202

 - Thermochemistry -
 -------------------
 Temperature   298.150 Kelvin.  Pressure   1.00000 Atm.
 Atom     1 has atomic number  7 and mass  14.00307

 Molecular mass:   113.02253 amu.
 Principal axes and moments of inertia in atomic units:
                           1         2         3
     Eigenvalues --   348.28758 994.994531343.28211
           X            0.99995  -0.01048  -0.00006
           Y            0.01048   0.99995  -0.00006
           Z            0.00006   0.00006   1.00000
 This molecule is an asymmetric top.
 Rotational symmetry number  1.
 Rotational temperatures (Kelvin)      0.24869     0.08705     0.06448
 Rotational constants (GHZ):           5.18176     1.81382     1.34353
 Zero-point vibrational energy     187671.3 (Joules/Mol)
                                   44.85451 (Kcal/Mol)
 Warning -- explicit consideration of   8 degrees of freedom as
           vibrations may cause significant error
 Vibrational temperatures:    184.06   207.14   351.86   591.47   651.77
          (Kelvin)            695.82   814.45   874.02   906.93  1037.55
                             1103.26  1241.69  1249.34  1371.56  1556.79
                             1604.45  1636.75  1760.31  1822.26  1850.29
                             2037.41  2104.87  2207.18  2456.42  4736.27
                             4763.61  5325.80

 Zero-point correction=                           0.071480 (Hartree/Particle)
 Thermal correction to Energy=                    0.077910
 Thermal correction to Enthalpy=                  0.078854
 Thermal correction to Gibbs Free Energy=         0.040072
 Sum of electronic and zero-point Energies=           -430.690620
 Sum of electronic and thermal Energies=              -430.684191
 Sum of electronic and thermal Enthalpies=            -430.683246
 Sum of electronic and thermal Free Energies=         -430.722029

                     E (Thermal)             CV                S
                      KCal/Mol        Cal/Mol-Kelvin    Cal/Mol-Kelvin
 Total                   48.889             23.378             81.624
 Electronic               0.000              0.000              1.377
 Translational            0.889              2.981             40.083
 Rotational               0.889              2.981             27.634
 Vibrational             47.112             17.417             12.529
 Vibration     1          0.611              1.925              2.977
 Vibration     2          0.616              1.909              2.750
 Vibration     3          0.660              1.772              1.769
 Vibration     4          0.775              1.446              0.923
 Vibration     5          0.812              1.354              0.787
 Vibration     6          0.840              1.286              0.700
 Vibration     7          0.922              1.105              0.512
 Vibration     8          0.966              1.016              0.437

 Optimization completed.
    -- Stationary point found.
 Normal termination of Gaussian 16 at Sat Jul  1 04:55:43 2023.
