 Gaussian 16, Revision C.01,
 Gaussian 16:  ES64L-G16RevC.01  3-Jul-2019

 -----------------------------------------------------
 # opt freq 6-31+g(d,p) scrf=(smd,solvent=water) m062x
 -----------------------------------------------------

 -------------------
 Title Card Required
 -------------------
 Symbolic Z-matrix:
 Charge =  0 Multiplicity = 1

 SCF Done:  E(RM062X) =  -469.838076051     A.U. after   16 cycles
 SCF Done:  E(RM062X) =  -469.857066630     A.U. after   14 cycles
 SCF Done:  E(RM062X) =  -469.867416429     A.U. after   15 cycles
 SCF Done:  E(RM062X) =  -469.871705020     A.U. after   13 cycles
 SCF Done:  E(RM062X) =  -469.874778479     A.U. after   14 cycles
 SCF Done:  E(RM062X) =  -469.876245546     A.U. after   14 cycles
 SCF Done:  E(RM062X) =  -469.876893283     A.U. after   14 cycles
 SCF Done:  E(RM062X) =  -469.877722753     A.U. after   13 cycles
 SCF Done:  E(RM062X) =  -469.877773221     A.U. after   13 cycles
 SCF Done:  E(RM062X) =  -469.877857769     A.U. after   12 cycles
 SCF Done:  E(RM062X) =  -469.877861344     A.U. after   11 cycles
 SCF Done:  E(RM062X) =  -469.877870093     A.U. after   11 cycles
 SCF Done:  E(RM062X) =  -469.877870749     A.U. after    8 cycles
 SCF Done:  E(RM062X) =  -469.877870988     A.U. after    9 cycles
 SCF Done:  E(RM062X) =  -469.877871057     A.U. after    8 cycles
 Optimization completed.
    -- Stationary point found.
 Normal termination of Gaussian 16 at Fri Dec  1 08:30:01 2023.

 ----------------------------------------------------------------------
 #N Geom=AllCheck Guess=TCheck SCRF=Check GenChk RM062X/6-31+G(d,p) Fre
 q
 ----------------------------------------------------------------------

 Structure from the checkpoint file:  "/home/gau/soft/scratch/Gau-89863.chk"
 -------------------
 Title Card Required
 -------------------
 Charge =  0 Multiplicity = 1

                         Standard orientation:
 ---------------------------------------------------------------------
 Center     Atomic      Atomic             Coordinates (Angstroms)
 Number     Number       Type             X           Y           Z
 ---------------------------------------------------------------------
      1          7           0        0.051633   -0.291762   -0.007055
      2          7           0       -0.848463    0.771222   -0.001063
      3          6           0       -2.093794    0.165705    0.005929
      4          6           0       -1.871535   -1.199872    0.002875
      5          7           0       -0.590673   -1.520790   -0.004586
      6          1           0       -2.985274    0.768778    0.009984
      7          1           0       -2.624187   -1.975977    0.005931
      8          6           0       -0.588281    2.065678   -0.004137
      9          6           0        1.434780   -0.250672    0.000098
     10          8           0        1.920124    0.983188    0.004989
     11          8           0        2.103498   -1.265604    0.000720
     12          1           0        2.892568    0.930945    0.010785
     13          1           0        0.415828    2.440274   -0.012542
     14          1           0       -1.462412    2.699590    0.000515
 ---------------------------------------------------------------------

 SCF Done:  E(RM062X) =  -469.877871057     A.U. after    1 cycles

 The electronic state is 1-A.
 Alpha  occ. eigenvalues --  -19.71488 -19.65613 -14.92315 -14.89287 -14.79278
 Alpha  occ. eigenvalues --  -10.74716 -10.59241 -10.57901 -10.57602  -1.28162
 Alpha  occ. eigenvalues --   -1.22670  -1.16788  -1.06281  -0.97480  -0.84582
 Alpha  occ. eigenvalues --   -0.79254  -0.74039  -0.68669  -0.63538  -0.61044
 Alpha  occ. eigenvalues --   -0.60173  -0.57090  -0.54232  -0.53790  -0.53181
 Alpha  occ. eigenvalues --   -0.50689  -0.47045  -0.43772  -0.41251  -0.40607
 Alpha  occ. eigenvalues --   -0.38020  -0.35501  -0.22350
 Alpha virt. eigenvalues --   -0.02145   0.01719   0.03414   0.03499   0.04634
 Alpha virt. eigenvalues --    0.05694   0.05841   0.06075   0.06807   0.08268
 Alpha virt. eigenvalues --    0.08814   0.09396   0.10198   0.11495   0.11962

 Mulliken charges:
               1
     1  N   -0.198118
     2  N    0.076072
     3  C   -0.215817
     4  C   -0.153588
     5  N   -0.319424
     6  H    0.244721
     7  H    0.231532
     8  C   -0.355621
     9  C    0.829460
    10  O   -0.549017
    11  O   -0.538117
    12  H    0.494930
    13  H    0.236390
    14  H    0.216596
 Sum of Mulliken charges =  -0.00000

 Dipole moment (field-independent basis, Debye):
    X=             -2.2141    Y=              6.5630    Z=              0.0222  Tot=              6.9265
 Quadrupole moment (field-independent basis, Debye-Ang):
   XX=            -37.8280   YY=            -55.8505   ZZ=            -54.8992
   XY=              8.6107   XZ=             -0.0012   YZ=             -0.0314

  Exact polarizability:     128.324      -0.042     200.375      -0.116      -0.109      61.437
 Approx polarizability:     105.788       0.281     164.746      -0.113      -0.050      56.132

 ******    1 imaginary frequencies (negative Signs) ******

                      1                      2                      3
                      A                      A                      A
 Frequencies --     -8.7618                81.3784               234.9607
 Red. masses --      4.2580                 9.5496                 5.5173
 Frc consts  --      0.0002                 0.0373                 0.1795
 IR Inten    --      9.1901                 1.7336                 5.1213

                      4                      5                      6
                      A                      A                      A
 Frequencies --    276.5298               426.0880               427.0032
 Red. masses --      6.9760                 1.6113                 1.9150
 Frc consts  --      0.3143                 0.1724                 0.2057
 IR Inten    --     10.4137                76.8153                66.2849

                      7                      8                      9
                      A                      A                      A
 Frequencies --    448.2998               462.8940               550.6800
 Red. masses --      7.2276                 1.1073                 3.8799
 Frc consts  --      0.8558                 0.1398                 0.6932
 IR Inten    --      6.5101               126.3528                96.6163

                     10                     11                     12
                      A                      A                      A
 Frequencies --    573.5358               627.9882               655.5658
 Red. masses --      4.2769                 1.2757                 2.3107
 Frc consts  --      0.8289                 0.2964                 0.5851
 IR Inten    --      8.3893                 7.2058                 5.7971

                     13                     14                     15
                      A                      A                      A
 Frequencies --    699.0040               699.6921               740.4713
 Red. masses --      1.8988                 4.3832                11.8226
 Frc consts  --      0.5466                 1.2643                 3.8193
 IR Inten    --    195.3559               133.0605                32.5115

                     16                     17                     18
                      A                      A                      A
 Frequencies --    774.4013               906.2259               939.8780
 Red. masses --      4.6187                 5.3255                 1.2911
 Frc consts  --      1.6319                 2.5768                 0.6720
 IR Inten    --     30.8973               239.5006                14.2811

                     19                     20                     21
                      A                      A                      A
 Frequencies --   1045.0570              1098.1288              1126.7639
 Red. masses --      1.9151                 1.7924                 2.2395
 Frc consts  --      1.2323                 1.2735                 1.6752
 IR Inten    --     87.4246               277.5077               234.4175

                     22                     23                     24
                      A                      A                      A
 Frequencies --   1173.5956              1218.2986              1267.5237
 Red. masses --      3.8942                 2.4278                 1.5811
 Frc consts  --      3.1601                 2.1231                 1.4967
 IR Inten    --    179.5375               422.8057                 4.1094

                     25                     26                     27
                      A                      A                      A
 Frequencies --   1327.9800              1419.1906              1454.1297
 Red. masses --      3.2560                 2.7380                 2.3735
 Frc consts  --      3.3832                 3.2491                 2.9570
 IR Inten    --     25.4496               793.9096               183.1215

                     28                     29                     30
                      A                      A                      A
 Frequencies --   1498.5493              1568.6852              1588.9440
 Red. masses --      1.7335                 5.6150                 7.3323
 Frc consts  --      2.2936                 8.1408                10.9070
 IR Inten    --    166.5480               242.2181              1308.8105

                     31                     32                     33
                      A                      A                      A
 Frequencies --   1749.5782              3261.7474              3298.1127
 Red. masses --     11.3934                 1.0541                 1.0988
 Frc consts  --     20.5481                 6.6072                 7.0423
 IR Inten    --   1571.3950               107.4904                 0.0917

                     34                     35                     36
                      A                      A                      A
 Frequencies --   3350.2960              3426.0490              3773.8123
 Red. masses --      1.1013                 1.1212                 1.0657
 Frc consts  --      7.2833                 7.7542                 8.9421
 IR Inten    --     23.1758                62.8986               370.7202

 - Thermochemistry -
 -------------------
 Temperature   298.150 Kelvin.  Pressure   1.00000 Atm.
 Atom     1 has atomic number  7 and mass  14.00307

 Molecular mass:   127.03818 amu.
 Principal axes and moments of inertia in atomic units:
                           1         2         3
     Eigenvalues --   610.911201053.003671663.89669
           X            0.99980   0.02007  -0.00007
           Y           -0.02007   0.99980  -0.00013
           Z            0.00007   0.00013   1.00000
 This molecule is an asymmetric top.
 Rotational symmetry number  1.
 Warning -- assumption of classical behavior for rotation
           may cause significant error
 Rotational temperatures (Kelvin)      0.14178     0.08225     0.05205
 Rotational constants (GHZ):           2.95418     1.71390     1.08465
    1 imaginary frequencies ignored.
 Zero-point vibrational energy     264201.5 (Joules/Mol)
                                   63.14567 (Kcal/Mol)
 Warning -- explicit consideration of   9 degrees of freedom as
           vibrations may cause significant error
 Vibrational temperatures:    117.09   338.06   397.86   613.05   614.36
          (Kelvin)            645.00   666.00   792.31   825.19   903.53
                              943.21  1005.71  1006.70  1065.37  1114.19
                             1303.86  1352.27  1503.60  1579.96  1621.16
                             1688.54  1752.86  1823.68  1910.67  2041.90
                             2092.17  2156.08  2256.99  2286.14  2517.25
                             4692.93  4745.25  4820.33  4929.32  5429.67

 Zero-point correction=                           0.100629 (Hartree/Particle)
 Thermal correction to Energy=                    0.107590
 Thermal correction to Enthalpy=                  0.108534
 Thermal correction to Gibbs Free Energy=         0.069092
 Sum of electronic and zero-point Energies=           -469.777242
 Sum of electronic and thermal Energies=              -469.770281
 Sum of electronic and thermal Enthalpies=            -469.769337
 Sum of electronic and thermal Free Energies=         -469.808779

                     E (Thermal)             CV                S
                      KCal/Mol        Cal/Mol-Kelvin    Cal/Mol-Kelvin
 Total                   67.514             27.106             83.012
 Electronic               0.000              0.000              0.000
 Translational            0.889              2.981             40.431
 Rotational               0.889              2.981             28.461
 Vibrational             65.736             21.144             14.119
 Vibration     1          0.600              1.962              3.857
 Vibration     2          0.655              1.787              1.841
 Vibration     3          0.678              1.717              1.555
 Vibration     4          0.788              1.413              0.872
 Vibration     5          0.789              1.411              0.869
 Vibration     6          0.807              1.365              0.801
 Vibration     7          0.821              1.332              0.758
 Vibration     8          0.906              1.138              0.543
 Vibration     9          0.930              1.088              0.497

                           ! Non-Optimized Parameters !
 Normal termination of Gaussian 16 at Fri Dec  1 08:30:46 2023.
