 Gaussian 16, Revision A.03,
 Gaussian 16:  ES64L-G16RevA.03 25-Dec-2016

 ----------------------------------------------------------------------
 # opt=(calcfc,ts,noeigentest,maxcycle=600) freq 6-31+g(d,p) integral=g
 rid=ultrafine m062x scrf=(SMD,solvent=water)
 ----------------------------------------------------------------------

 --
 TS
 --
 Symbolic Z-matrix:
 Charge = -1 Multiplicity = 2

 SCF Done:  E(UM062X) =  -507.126730788     A.U. after   18 cycles
 SCF Done:  E(UM062X) =  -507.141550031     A.U. after   16 cycles
 SCF Done:  E(UM062X) =  -507.143808124     A.U. after   16 cycles
 SCF Done:  E(UM062X) =  -507.143833638     A.U. after   16 cycles
 SCF Done:  E(UM062X) =  -507.144129920     A.U. after   16 cycles
 SCF Done:  E(UM062X) =  -507.144214563     A.U. after   15 cycles
 SCF Done:  E(UM062X) =  -507.144227805     A.U. after   14 cycles
 SCF Done:  E(UM062X) =  -507.144230696     A.U. after   12 cycles
 SCF Done:  E(UM062X) =  -507.144232453     A.U. after   11 cycles
 SCF Done:  E(UM062X) =  -507.144231502     A.U. after   12 cycles
 SCF Done:  E(UM062X) =  -507.144233422     A.U. after   12 cycles
 SCF Done:  E(UM062X) =  -507.144232129     A.U. after   10 cycles
 SCF Done:  E(UM062X) =  -507.144232472     A.U. after   10 cycles
 SCF Done:  E(UM062X) =  -507.144232860     A.U. after   10 cycles
 Optimization completed.
    -- Stationary point found.
 Normal termination of Gaussian 16 at Sun Jul  9 23:43:10 2023.

 ----------------------------------------------------------------------
 #N Geom=AllCheck Guess=TCheck SCRF=Check GenChk UM062X/6-31+G(d,p) Fre
 q
 ----------------------------------------------------------------------

 Structure from the checkpoint file:  "/scratch/gongke2021/TS-cycle/Gau-15419.chk"
 --
 TS
 --
 Charge = -1 Multiplicity = 2

                         Standard orientation:
 ---------------------------------------------------------------------
 Center     Atomic      Atomic             Coordinates (Angstroms)
 Number     Number       Type             X           Y           Z
 ---------------------------------------------------------------------
      1          8           0       -2.596333   -1.452350   -0.048053
      2          1           0       -3.381642   -0.959329    0.254657
      3          1           0       -2.440598   -2.192881    0.566681
      4          7           0        0.518866    0.312578   -0.002108
      5          7           0        0.087260   -1.003920   -0.044867
      6          6           0        1.261126   -1.699103   -0.030991
      7          6           0        2.326148   -0.824187    0.017003
      8          7           0        1.893491    0.467933    0.036768
      9          1           0        1.263739   -2.779787   -0.057497
     10          1           0        3.384079   -1.045752    0.038404
     11          1           0       -1.777123   -0.824488   -0.043217
     12          6           0       -0.399204    1.340600   -0.007658
     13          8           0       -1.628435    0.970558   -0.048759
     14          8           0        0.015493    2.539572    0.027099
 ---------------------------------------------------------------------

 SCF Done:  E(UM062X) =  -507.144232860     A.U. after    1 cycles

 The electronic state is 2-A.
 Alpha  occ. eigenvalues --  -19.74879 -19.59715 -19.59314 -14.82506 -14.75701
 Alpha  occ. eigenvalues --  -14.75425 -10.66290 -10.54733 -10.54584  -1.24755
 Alpha  occ. eigenvalues --   -1.18831  -1.12733  -1.06252  -0.94597  -0.90486
 Alpha  occ. eigenvalues --   -0.72806  -0.69134  -0.68249  -0.66101  -0.60068
 Alpha  occ. eigenvalues --   -0.55600  -0.54479  -0.52137  -0.50452  -0.49865
 Alpha  occ. eigenvalues --   -0.46268  -0.45956  -0.38810  -0.35466  -0.35144
 Alpha  occ. eigenvalues --   -0.35062  -0.33384  -0.32086  -0.31668  -0.13595
 Alpha virt. eigenvalues --    0.02412   0.03901   0.04831   0.05681   0.06803
 Alpha virt. eigenvalues --    0.07149   0.07966   0.08788   0.10693   0.10923
 Alpha virt. eigenvalues --    0.11133   0.12852   0.12967   0.13426   0.16212

  Beta  occ. eigenvalues --  -19.74878 -19.59635 -19.59202 -14.82342 -14.75210
  Beta  occ. eigenvalues --  -14.74920 -10.66223 -10.54706 -10.54581  -1.24750
  Beta  occ. eigenvalues --   -1.18122  -1.12042  -1.05900  -0.93009  -0.89686
  Beta  occ. eigenvalues --   -0.71933  -0.69124  -0.68203  -0.65648  -0.59043
  Beta  occ. eigenvalues --   -0.55265  -0.52683  -0.51932  -0.50124  -0.49534
  Beta  occ. eigenvalues --   -0.45871  -0.44368  -0.37817  -0.35070  -0.34204
  Beta  occ. eigenvalues --   -0.33005  -0.31639  -0.29554  -0.29306
  Beta virt. eigenvalues --    0.02049   0.02123   0.03861   0.04463   0.05205
  Beta virt. eigenvalues --    0.06604   0.06809   0.08227   0.08656   0.09420
  Beta virt. eigenvalues --    0.10768   0.11107   0.12039   0.13482   0.15012

 Mulliken charges and spin densities:
               1          2
     1  O   -0.586899   0.001584
     2  H    0.499352  -0.000152
     3  H    0.492323  -0.000251
     4  N   -0.127434   0.001055
     5  N   -0.446598   0.355031
     6  C   -0.206209   0.066952
     7  C   -0.200166   0.022031
     8  N   -0.531575   0.367560
     9  H    0.187445  -0.004070
    10  H    0.184658  -0.001988
    11  H    0.547219  -0.003518
    12  C    0.825231   0.104577
    13  O   -0.821439   0.039194
    14  O   -0.815907   0.051996
 Sum of Mulliken charges =  -1.00000   1.00000

 Dipole moment (field-independent basis, Debye):
    X=             -8.4217    Y=            -15.5477    Z=              2.1116  Tot=             17.8077
 Quadrupole moment (field-independent basis, Debye-Ang):
   XX=            -43.3549   YY=            -73.3426   ZZ=            -57.5351
   XY=             11.6353   XZ=             -6.3096   YZ=             -4.2702

  Exact polarizability: 145.228 -12.219 150.058   0.945   0.550  73.396
 Approx polarizability: 111.407  -1.588 113.734   0.900   0.482  62.732

 ******    1 imaginary frequencies (negative Signs) ******

                      1                      2                      3
                      A                      A                      A
 Frequencies --   -567.1495                68.3771               119.8177
 Red. masses --      1.1049                 6.3729                 5.8925
 Frc consts  --      0.2094                 0.0176                 0.0498
 IR Inten    --    154.3971                23.9227                 5.4022

                      4                      5                      6
                      A                      A                      A
 Frequencies --    138.0136               156.7929               183.7892
 Red. masses --      1.7713                 8.7684                 1.6108
 Frc consts  --      0.0199                 0.1270                 0.0321
 IR Inten    --     98.7486                 3.2834                35.6327

                      7                      8                      9
                      A                      A                      A
 Frequencies --    240.3335               295.2531               421.6008
 Red. masses --      5.3686                 7.5235                12.0335
 Frc consts  --      0.1827                 0.3864                 1.2602
 IR Inten    --    142.7473                26.6395                15.8859

                     10                     11                     12
                      A                      A                      A
 Frequencies --    478.4516               552.0249               578.0051
 Red. masses --     11.4649                 1.1219                10.6901
 Frc consts  --      1.5463                 0.2014                 2.1042
 IR Inten    --      6.5653               192.8684                14.8150

                     13                     14                     15
                      A                      A                      A
 Frequencies --    607.5640               725.6436               749.9868
 Red. masses --      4.3941                11.9812                 1.1898
 Frc consts  --      0.9557                 3.7170                 0.3943
 IR Inten    --      0.1236                62.5178               122.5524

                     16                     17                     18
                      A                      A                      A
 Frequencies --    784.8050               851.2516               895.9035
 Red. masses --     12.7442                 1.2850                 6.1444
 Frc consts  --      4.6247                 0.5486                 2.9057
 IR Inten    --     39.8876                 1.0047                38.9274

                     19                     20                     21
                      A                      A                      A
 Frequencies --    952.0205              1108.8587              1119.0668
 Red. masses --      7.7064                 1.8019                 1.3743
 Frc consts  --      4.1152                 1.3054                 1.0140
 IR Inten    --     28.2069               191.5401                37.1858

                     22                     23                     24
                      A                      A                      A
 Frequencies --   1128.5320              1195.3702              1229.0250
 Red. masses --      1.2517                 6.0430                12.1738
 Frc consts  --      0.9392                 5.0875                10.8342
 IR Inten    --    478.9664               626.3626                 8.3992

                     25                     26                     27
                      A                      A                      A
 Frequencies --   1280.3013              1393.8226              1411.2231
 Red. masses --      7.2940                 1.6953                 1.8499
 Frc consts  --      7.0443                 1.9405                 2.1707
 IR Inten    --    156.5355                57.2160               321.7239

                     28                     29                     30
                      A                      A                      A
 Frequencies --   1487.8535              1536.9614              1561.6789
 Red. masses --      4.2701                 4.7797                 6.9191
 Frc consts  --      5.5695                 6.6524                 9.9422
 IR Inten    --   1820.8568                20.5179              1198.7745

                     31                     32                     33
                      A                      A                      A
 Frequencies --   1631.1242              2696.7499              3279.3496
 Red. masses --      1.0560                 1.0762                 1.0887
 Frc consts  --      1.6554                 4.6112                 6.8984
 IR Inten    --    102.6003              3039.3669                 0.1712

                     34                     35                     36
                      A                      A                      A
 Frequencies --   3299.4610              3722.2936              3795.1826
 Red. masses --      1.1053                 1.0450                 1.0848
 Frc consts  --      7.0897                 8.5306                 9.2061
 IR Inten    --     11.9002               246.0952               460.1418

 - Thermochemistry -
 -------------------
 Temperature   298.150 Kelvin.  Pressure   1.00000 Atm.
 Atom     1 has atomic number  8 and mass  15.99491

 Molecular mass:   131.03309 amu.
 Principal axes and moments of inertia in atomic units:
                           1         2         3
     Eigenvalues --   893.329931159.574562049.19419
           X            0.99908   0.04238  -0.00658
           Y           -0.04242   0.99908  -0.00556
           Z            0.00633   0.00584   0.99996
 This molecule is an asymmetric top.
 Rotational symmetry number  1.
 Warning -- assumption of classical behavior for rotation
           may cause significant error
 Rotational temperatures (Kelvin)      0.09696     0.07469     0.04227
 Rotational constants (GHZ):           2.02024     1.55638     0.88071
    1 imaginary frequencies ignored.
 Zero-point vibrational energy     249280.8 (Joules/Mol)
                                   59.57953 (Kcal/Mol)
 Warning -- explicit consideration of  12 degrees of freedom as
           vibrations may cause significant error
 Vibrational temperatures:     98.38   172.39   198.57   225.59   264.43
          (Kelvin)            345.79   424.80   606.59   688.39   794.24
                              831.62   874.15  1044.04  1079.06  1129.16
                             1224.76  1289.01  1369.75  1595.40  1610.09
                             1623.71  1719.87  1768.29  1842.07  2005.40
                             2030.44  2140.69  2211.34  2246.91  2346.82
                             3880.02  4718.25  4747.19  5355.55  5460.42

 Zero-point correction=                           0.094946 (Hartree/Particle)
 Thermal correction to Energy=                    0.103716
 Thermal correction to Enthalpy=                  0.104660
 Thermal correction to Gibbs Free Energy=         0.060048
 Sum of electronic and zero-point Energies=           -507.049287
 Sum of electronic and thermal Energies=              -507.040517
 Sum of electronic and thermal Enthalpies=            -507.039573
 Sum of electronic and thermal Free Energies=         -507.084185

                     E (Thermal)             CV                S
                      KCal/Mol        Cal/Mol-Kelvin    Cal/Mol-Kelvin
 Total                   65.083             30.458             93.895
 Electronic               0.000              0.000              1.377
 Translational            0.889              2.981             40.524
 Rotational               0.889              2.981             29.141
 Vibrational             63.305             24.496             22.852
 Vibration     1          0.598              1.969              4.200
 Vibration     2          0.609              1.933              3.103
 Vibration     3          0.614              1.915              2.831
 Vibration     4          0.620              1.895              2.588
 Vibration     5          0.631              1.862              2.290
 Vibration     6          0.657              1.779              1.800
 Vibration     7          0.689              1.683              1.444
 Vibration     8          0.784              1.423              0.887
 Vibration     9          0.835              1.298              0.714
 Vibration    10          0.907              1.135              0.540
 Vibration    11          0.935              1.079              0.489
 Vibration    12          0.966              1.016              0.437

 Optimization completed.
    -- Stationary point found.
 Normal termination of Gaussian 16 at Sun Jul  9 23:45:40 2023.
