 Gaussian 16, Revision C.01,
 Gaussian 16:  ES64L-G16RevC.01  3-Jul-2019

 ----------------------------------------------------------------------
 # opt=(calcfc,ts,noeigentest,maxcycle=600) freq 6-31+g(d,p) scrf=(smd,
 solvent=water) integral=grid=ultrafine m062x
 ----------------------------------------------------------------------

 --
 TS
 --
 Symbolic Z-matrix:
 Charge =  0 Multiplicity = 1

 SCF Done:  E(RM062X) =  -507.063861654     A.U. after   14 cycles
 SCF Done:  E(RM062X) =  -507.074897618     A.U. after   12 cycles
 SCF Done:  E(RM062X) =  -507.080870104     A.U. after   12 cycles
 SCF Done:  E(RM062X) =  -507.083787812     A.U. after   12 cycles
 SCF Done:  E(RM062X) =  -507.082318789     A.U. after   14 cycles
 SCF Done:  E(RM062X) =  -507.084065902     A.U. after   12 cycles
 SCF Done:  E(RM062X) =  -507.083931993     A.U. after   11 cycles
 SCF Done:  E(RM062X) =  -507.084913847     A.U. after   12 cycles
 SCF Done:  E(RM062X) =  -507.085588097     A.U. after   12 cycles
 SCF Done:  E(RM062X) =  -507.084723356     A.U. after   12 cycles
 SCF Done:  E(RM062X) =  -507.082677484     A.U. after   12 cycles
 SCF Done:  E(RM062X) =  -507.083163885     A.U. after   11 cycles
 SCF Done:  E(RM062X) =  -507.083076909     A.U. after   12 cycles
 SCF Done:  E(RM062X) =  -507.083231652     A.U. after   12 cycles
 SCF Done:  E(RM062X) =  -507.083243439     A.U. after   10 cycles
 SCF Done:  E(RM062X) =  -507.083244733     A.U. after    9 cycles
 SCF Done:  E(RM062X) =  -507.083245016     A.U. after    8 cycles
 SCF Done:  E(RM062X) =  -507.083243949     A.U. after    9 cycles
 SCF Done:  E(RM062X) =  -507.083244931     A.U. after    9 cycles
 Optimization completed.
    -- Stationary point found.
 Normal termination of Gaussian 16 at Wed Dec  6 12:05:15 2023.

 ----------------------------------------------------------------------
 #N Geom=AllCheck Guess=TCheck SCRF=Check GenChk RM062X/6-31+G(d,p) Fre
 q
 ----------------------------------------------------------------------

 Structure from the checkpoint file:  "/home/gau/soft/scratch/Gau-38540.chk"
 --
 TS
 --
 Charge =  0 Multiplicity = 1

                         Standard orientation:
 ---------------------------------------------------------------------
 Center     Atomic      Atomic             Coordinates (Angstroms)
 Number     Number       Type             X           Y           Z
 ---------------------------------------------------------------------
      1          8           0       -1.969798   -1.950955   -0.071421
      2          1           0       -2.294581   -1.003173   -0.012341
      3          1           0       -2.255903   -2.440363    0.719722
      4          7           0        0.392460    0.349132    0.001525
      5          7           0        0.352232   -0.982168   -0.013273
      6          6           0        1.616205   -1.379560   -0.010897
      7          6           0        2.413484   -0.225474    0.004729
      8          7           0        1.617522    0.837505    0.012058
      9          1           0        1.882619   -2.425670   -0.020102
     10          1           0        3.487929   -0.128065    0.010019
     11          1           0       -0.920458   -1.714493   -0.017084
     12          6           0       -0.824487    1.220625   -0.001848
     13          8           0       -1.905765    0.600503   -0.032160
     14          8           0       -0.582728    2.423820    0.024294
 ---------------------------------------------------------------------

 SCF Done:  E(RM062X) =  -507.083244931     A.U. after    1 cycles

 The electronic state is 1-A.
 Alpha  occ. eigenvalues --  -19.72205 -19.64220 -19.63513 -14.89669 -14.84332
 Alpha  occ. eigenvalues --  -14.82649 -10.72164 -10.60435 -10.59471  -1.26608
 Alpha  occ. eigenvalues --   -1.22334  -1.20419  -1.12272  -1.02747  -0.95134
 Alpha  occ. eigenvalues --   -0.75646  -0.73810  -0.70046  -0.67878  -0.62375
 Alpha  occ. eigenvalues --   -0.59899  -0.59597  -0.55060  -0.54658  -0.52505
 Alpha  occ. eigenvalues --   -0.51547  -0.51148  -0.43218  -0.40401  -0.39372
 Alpha  occ. eigenvalues --   -0.38579  -0.36856  -0.36620  -0.34685
 Alpha virt. eigenvalues --   -0.01432   0.01654   0.03504   0.04011   0.04746
 Alpha virt. eigenvalues --    0.06133   0.06168   0.06465   0.08141   0.08843
 Alpha virt. eigenvalues --    0.10517   0.10684   0.10754   0.11434   0.12566

 Mulliken charges:
               1
     1  O   -0.714555
     2  H    0.526310
     3  H    0.497841
     4  N   -0.225420
     5  N   -0.155293
     6  C   -0.137853
     7  C   -0.145572
     8  N   -0.206145
     9  H    0.248641
    10  H    0.238094
    11  H    0.553745
    12  C    0.838573
    13  O   -0.686203
    14  O   -0.632164
 Sum of Mulliken charges =  -0.00000

 Dipole moment (field-independent basis, Debye):
    X=              1.4843    Y=            -13.5877    Z=              1.9360  Tot=             13.8050
 Quadrupole moment (field-independent basis, Debye-Ang):
   XX=            -41.6239   YY=            -56.3533   ZZ=            -51.5748
   XY=              7.7121   XZ=             -4.6989   YZ=             -5.0894

  Exact polarizability:     115.184      -1.507     112.248      -0.153      -0.091      54.167
 Approx polarizability:      98.362       1.250      99.637      -0.052      -0.033      50.881

 ******    1 imaginary frequencies (negative Signs) ******

                      1                      2                      3
                      A                      A                      A
 Frequencies --   -286.3232                63.0979                97.4141
 Red. masses --      1.8807                10.5549                 5.9990
 Frc consts  --      0.0908                 0.0248                 0.0335
 IR Inten    --    124.1769                 6.9323                 5.2686

                      4                      5                      6
                      A                      A                      A
 Frequencies --    161.4026               266.7258               280.6804
 Red. masses --      6.4458                 5.5347                 5.2449
 Frc consts  --      0.0989                 0.2320                 0.2435
 IR Inten    --      1.4513               221.2905               145.8748

                      7                      8                      9
                      A                      A                      A
 Frequencies --    423.3131               450.6757               517.0262
 Red. masses --      2.4349                 2.2141                 1.3709
 Frc consts  --      0.2571                 0.2650                 0.2159
 IR Inten    --     46.1729                68.0796                83.6944

                     10                     11                     12
                      A                      A                      A
 Frequencies --    561.0304               585.1469               674.8358
 Red. masses --      5.5941                 1.2534                 3.3622
 Frc consts  --      1.0374                 0.2529                 0.9021
 IR Inten    --     56.4775               150.7296                 6.3761

                     13                     14                     15
                      A                      A                      A
 Frequencies --    681.0250               773.9623               776.8631
 Red. masses --      8.4492                12.5566                12.4288
 Frc consts  --      2.3088                 4.4316                 4.4194
 IR Inten    --     20.7044               224.8653               355.7381

                     16                     17                     18
                      A                      A                      A
 Frequencies --    863.3552               933.2103               974.3986
 Red. masses --      1.1856                 1.4116                 6.9229
 Frc consts  --      0.5207                 0.7243                 3.8727
 IR Inten    --     89.6227                 0.6477                31.6457

                     19                     20                     21
                      A                      A                      A
 Frequencies --   1039.7354              1113.0950              1208.4134
 Red. masses --      2.2614                 2.4601                 1.3952
 Frc consts  --      1.4404                 1.7958                 1.2004
 IR Inten    --     53.9356                47.1899               254.7521

                     22                     23                     24
                      A                      A                      A
 Frequencies --   1277.5443              1292.9267              1326.4096
 Red. masses --      3.1120                 2.0496                 3.5146
 Frc consts  --      2.9926                 2.0187                 3.6432
 IR Inten    --    840.6710              1079.7018               401.3752

                     25                     26                     27
                      A                      A                      A
 Frequencies --   1378.7921              1380.6111              1485.2237
 Red. masses --      5.6299                 6.2254                 1.3346
 Frc consts  --      6.3059                 6.9914                 1.7346
 IR Inten    --    155.2853               158.3588               669.1475

                     28                     29                     30
                      A                      A                      A
 Frequencies --   1497.5930              1555.4837              1590.5126
 Red. masses --      2.6304                 1.6650                 2.1341
 Frc consts  --      3.4758                 2.3735                 3.1808
 IR Inten    --    171.1885               886.9891               735.2053

                     31                     32                     33
                      A                      A                      A
 Frequencies --   1766.5810              2090.3448              3175.8046
 Red. masses --      8.3932                 1.0931                 1.0631
 Frc consts  --     15.4328                 2.8141                 6.3173
 IR Inten    --    940.8583              2678.5415              1412.3540

                     34                     35                     36
                      A                      A                      A
 Frequencies --   3319.4886              3332.6683              3789.6032
 Red. masses --      1.0961                 1.1075                 1.0662
 Frc consts  --      7.1162                 7.2475                 9.0211
 IR Inten    --      6.5042                 7.2983               361.3756

 - Thermochemistry -
 -------------------
 Temperature   298.150 Kelvin.  Pressure   1.00000 Atm.
 Atom     1 has atomic number  8 and mass  15.99491

 Molecular mass:   131.03309 amu.
 Principal axes and moments of inertia in atomic units:
                           1         2         3
     Eigenvalues --   866.961241084.080071946.66282
           X            0.99743   0.07152  -0.00530
           Y           -0.07155   0.99741  -0.00709
           Z            0.00478   0.00746   0.99996
 This molecule is an asymmetric top.
 Rotational symmetry number  1.
 Warning -- assumption of classical behavior for rotation
           may cause significant error
 Rotational temperatures (Kelvin)      0.09991     0.07990     0.04449
 Rotational constants (GHZ):           2.08169     1.66477     0.92709
    1 imaginary frequencies ignored.
 Zero-point vibrational energy     255432.6 (Joules/Mol)
                                   61.04985 (Kcal/Mol)
 Warning -- explicit consideration of  10 degrees of freedom as
           vibrations may cause significant error
 Vibrational temperatures:     90.78   140.16   232.22   383.76   403.84
          (Kelvin)            609.05   648.42   743.89   807.20   841.90
                              970.94   979.84  1113.56  1117.73  1242.18
                             1342.68  1401.94  1495.95  1601.50  1738.64
                             1838.10  1860.23  1908.41  1983.77  1986.39
                             2136.91  2154.70  2237.99  2288.39  2541.72
                             3007.54  4569.27  4776.00  4794.97  5452.39

 Zero-point correction=                           0.097289 (Hartree/Particle)
 Thermal correction to Energy=                    0.105021
 Thermal correction to Enthalpy=                  0.105965
 Thermal correction to Gibbs Free Energy=         0.064055
 Sum of electronic and zero-point Energies=           -506.985956
 Sum of electronic and thermal Energies=              -506.978224
 Sum of electronic and thermal Enthalpies=            -506.977280
 Sum of electronic and thermal Free Energies=         -507.019190

                     E (Thermal)             CV                S
                      KCal/Mol        Cal/Mol-Kelvin    Cal/Mol-Kelvin
 Total                   65.902             27.716             88.208
 Electronic               0.000              0.000              0.000
 Translational            0.889              2.981             40.524
 Rotational               0.889              2.981             28.994
 Vibrational             64.124             21.754             18.690
 Vibration     1          0.597              1.972              4.358
 Vibration     2          0.603              1.951              3.505
 Vibration     3          0.622              1.890              2.533
 Vibration     4          0.672              1.734              1.617
 Vibration     5          0.680              1.709              1.530
 Vibration     6          0.785              1.420              0.881
 Vibration     7          0.809              1.359              0.794
 Vibration     8          0.872              1.212              0.617
 Vibration     9          0.917              1.116              0.522
 Vibration    10          0.942              1.063              0.476

 Optimization completed.
    -- Stationary point found.
 Normal termination of Gaussian 16 at Wed Dec  6 12:06:06 2023.
