 Gaussian 16, Revision A.03,
 Gaussian 16:  ES64L-G16RevA.03 25-Dec-2016

 -----------------------------------------------------
 # opt freq 6-31+g(d,p) scrf=(smd,solvent=water) m062x
 -----------------------------------------------------

 -------------------
 Title Card Required
 -------------------
 Symbolic Z-matrix:
 Charge = -1 Multiplicity = 2

 SCF Done:  E(UM062X) =  -523.155456589     A.U. after   19 cycles
 SCF Done:  E(UM062X) =  -523.195147106     A.U. after   18 cycles
 SCF Done:  E(UM062X) =  -523.194945473     A.U. after   18 cycles
 SCF Done:  E(UM062X) =  -523.199891977     A.U. after   17 cycles
 SCF Done:  E(UM062X) =  -523.213246556     A.U. after   18 cycles
 SCF Done:  E(UM062X) =  -523.209695788     A.U. after   18 cycles
 SCF Done:  E(UM062X) =  -523.210166981     A.U. after   17 cycles
 SCF Done:  E(UM062X) =  -523.214627400     A.U. after   12 cycles
 SCF Done:  E(UM062X) =  -523.215137353     A.U. after   16 cycles
 SCF Done:  E(UM062X) =  -523.215489023     A.U. after   15 cycles
 SCF Done:  E(UM062X) =  -523.219134610     A.U. after   15 cycles
 SCF Done:  E(UM062X) =  -523.219212449     A.U. after   13 cycles
 SCF Done:  E(UM062X) =  -523.219250726     A.U. after   14 cycles
 SCF Done:  E(UM062X) =  -523.219256829     A.U. after   13 cycles
 SCF Done:  E(UM062X) =  -523.219259738     A.U. after   12 cycles
 SCF Done:  E(UM062X) =  -523.219260934     A.U. after   10 cycles
 SCF Done:  E(UM062X) =  -523.219261183     A.U. after   10 cycles
 SCF Done:  E(UM062X) =  -523.219261850     A.U. after   11 cycles
 SCF Done:  E(UM062X) =  -523.219262174     A.U. after   12 cycles
 Optimization completed.
    -- Stationary point found.
 Normal termination of Gaussian 16 at Mon Nov  6 18:38:25 2023.

 ----------------------------------------------------------------------
 #N Geom=AllCheck Guess=TCheck SCRF=Check GenChk UM062X/6-31+G(d,p) Fre
 q
 ----------------------------------------------------------------------

 Structure from the checkpoint file:  "/scratch/gongke2021/sidanzuo-2/Gau-22501.chk"
 -------------------
 Title Card Required
 -------------------
 Charge = -1 Multiplicity = 2

                         Standard orientation:
 ---------------------------------------------------------------------
 Center     Atomic      Atomic             Coordinates (Angstroms)
 Number     Number       Type             X           Y           Z
 ---------------------------------------------------------------------
      1          7           0        0.338016   -0.988680   -0.331344
      2          7           0        0.381121    0.311058    0.160218
      3          7           0        1.697566    0.686382    0.322452
      4          7           0        2.429634   -0.425923    0.098876
      5          6           0        1.635043   -1.402074   -0.244903
      6          6           0       -0.674928    1.244678   -0.095141
      7          8           0       -0.419572    2.438765    0.157427
      8          8           0       -1.749583    0.731887   -0.502935
      9          1           0       -0.470046   -1.560255   -0.057203
     10          1           0        1.940094   -2.410793   -0.478198
     11          8           0       -2.356620   -1.842040    0.286285
     12          1           0       -2.597548   -1.908266    1.219058
     13          1           0       -2.351357   -0.885073    0.078978
 ---------------------------------------------------------------------

 SCF Done:  E(UM062X) =  -523.219262174     A.U. after    1 cycles

 The electronic state is 2-A.
 Alpha  occ. eigenvalues --  -19.64340 -19.61795 -19.61424 -14.85929 -14.83692
 Alpha  occ. eigenvalues --  -14.81535 -14.79629 -10.69563 -10.62220  -1.24671
 Alpha  occ. eigenvalues --   -1.18233  -1.12612  -1.09382  -1.04958  -0.99277
 Alpha  occ. eigenvalues --   -0.80667  -0.73186  -0.69623  -0.62771  -0.60148
 Alpha  occ. eigenvalues --   -0.57730  -0.55773  -0.54571  -0.51308  -0.50124
 Alpha  occ. eigenvalues --   -0.47067  -0.42986  -0.41208  -0.39967  -0.39415
 Alpha  occ. eigenvalues --   -0.38003  -0.35880  -0.35394  -0.34368  -0.20450
 Alpha virt. eigenvalues --    0.02382   0.04051   0.04406   0.04873   0.05694
 Alpha virt. eigenvalues --    0.06557   0.07053   0.08352   0.10218   0.10432
 Alpha virt. eigenvalues --    0.11129   0.12944   0.15436   0.16034   0.17972

  Beta  occ. eigenvalues --  -19.64339 -19.61742 -19.61370 -14.85540 -14.83350
  Beta  occ. eigenvalues --  -14.80780 -14.79704 -10.69542 -10.62133  -1.23556
  Beta  occ. eigenvalues --   -1.17914  -1.12598  -1.09172  -1.03853  -0.98067
  Beta  occ. eigenvalues --   -0.79146  -0.72519  -0.68815  -0.62244  -0.59326
  Beta  occ. eigenvalues --   -0.56633  -0.54732  -0.54203  -0.51122  -0.49079
  Beta  occ. eigenvalues --   -0.47015  -0.41851  -0.39554  -0.38625  -0.37551
  Beta  occ. eigenvalues --   -0.35324  -0.35132  -0.34676  -0.33704
  Beta virt. eigenvalues --   -0.02179   0.02246   0.04304   0.04411   0.04780
  Beta virt. eigenvalues --    0.06571   0.06730   0.06999   0.08643   0.10404
  Beta virt. eigenvalues --    0.11054   0.11706   0.12833   0.15221   0.16014

 Mulliken charges and spin densities:
               1          2
     1  N   -0.392074   0.171718
     2  N   -0.013842   0.158276
     3  N   -0.245064   0.517168
     4  N   -0.334350  -0.054993
     5  C    0.019104   0.130447
     6  C    0.788103   0.022207
     7  O   -0.726933   0.027788
     8  O   -0.774606   0.026837
     9  H    0.425664   0.005296
    10  H    0.245694  -0.005873
    11  O   -0.896212   0.001064
    12  H    0.439330  -0.000105
    13  H    0.465185   0.000170
 Sum of Mulliken charges =  -1.00000   1.00000

 Dipole moment (field-independent basis, Debye):
    X=              0.1784    Y=            -10.5768    Z=              1.6367  Tot=             10.7041
 Quadrupole moment (field-independent basis, Debye-Ang):
   XX=            -75.6943   YY=            -71.8756   ZZ=            -53.2713
   XY=             -2.5209   XZ=            -10.4304   YZ=             -3.7279

  Exact polarizability: 116.891  -2.976 117.823   7.753   9.854  65.371
 Approx polarizability:  95.226   3.549  98.288   7.081   8.930  59.724

                      1                      2                      3
                      A                      A                      A
 Frequencies --     65.1744                95.6288               112.5957
 Red. masses --      7.0166                 6.1453                 7.8340
 Frc consts  --      0.0176                 0.0331                 0.0585
 IR Inten    --     13.4380                 6.7416                 5.5874

                      4                      5                      6
                      A                      A                      A
 Frequencies --    137.8920               178.7703               241.1610
 Red. masses --      9.2218                 6.5985                 1.4229
 Frc consts  --      0.1033                 0.1242                 0.0488
 IR Inten    --     74.3349                12.3193               122.6256

                      7                      8                      9
                      A                      A                      A
 Frequencies --    254.0996               328.0020               392.6185
 Red. masses --      3.3416                 1.0963                 8.3791
 Frc consts  --      0.1271                 0.0695                 0.7610
 IR Inten    --     69.3007               172.6987                14.2860

                     10                     11                     12
                      A                      A                      A
 Frequencies --    451.1805               539.9615               626.3363
 Red. masses --     11.1642                 4.1480                 2.1475
 Frc consts  --      1.3390                 0.7125                 0.4964
 IR Inten    --      1.8194               165.1405               202.0939

                     13                     14                     15
                      A                      A                      A
 Frequencies --    642.0406               702.0016               775.8689
 Red. masses --      2.0919                 1.2172                10.1387
 Frc consts  --      0.5081                 0.3534                 3.5959
 IR Inten    --    371.2592               118.2542                56.3224

                     16                     17                     18
                      A                      A                      A
 Frequencies --    793.8533               848.7071               954.8853
 Red. masses --      7.7231                 1.3539                 5.6629
 Frc consts  --      2.8676                 0.5746                 3.0422
 IR Inten    --    215.0398                51.0786                17.4200

                     19                     20                     21
                      A                      A                      A
 Frequencies --    977.9961              1069.7433              1157.2705
 Red. masses --      6.4542                 6.0963                 2.1886
 Frc consts  --      3.6372                 4.1103                 1.7270
 IR Inten    --     10.2147               105.4761               108.5622

                     22                     23                     24
                      A                      A                      A
 Frequencies --   1244.7910              1250.2958              1308.3556
 Red. masses --      5.9876                 2.7103                 2.7979
 Frc consts  --      5.4664                 2.4963                 2.8219
 IR Inten    --     22.6324                 3.1149               146.4120

                     25                     26                     27
                      A                      A                      A
 Frequencies --   1343.4911              1469.7593              1573.4659
 Red. masses --     11.0691                 1.8227                 1.1080
 Frc consts  --     11.7715                 2.3198                 1.6162
 IR Inten    --   1431.6679                21.5682                85.7916

                     28                     29                     30
                      A                      A                      A
 Frequencies --   1578.5685              1663.1079              3329.5941
 Red. masses --      5.0928                10.9894                 1.1009
 Frc consts  --      7.4772                17.9087                 7.1906
 IR Inten    --     58.4708              1484.4150                17.8747

                     31                     32                     33
                      A                      A                      A
 Frequencies --   3369.6480              3581.7438              3896.9206
 Red. masses --      1.0866                 1.0619                 1.0694
 Frc consts  --      7.2696                 8.0266                 9.5687
 IR Inten    --    829.2065               886.6585               188.5368

 - Thermochemistry -
 -------------------
 Temperature   298.150 Kelvin.  Pressure   1.00000 Atm.
 Atom     1 has atomic number  7 and mass  14.00307

 Molecular mass:   132.02834 amu.
 Principal axes and moments of inertia in atomic units:
                           1         2         3
     Eigenvalues --   886.995551189.239681992.38830
           X            0.99917   0.03824  -0.01377
           Y           -0.03832   0.99925  -0.00548
           Z            0.01355   0.00600   0.99989
 This molecule is an asymmetric top.
 Rotational symmetry number  1.
 Warning -- assumption of classical behavior for rotation
           may cause significant error
 Rotational temperatures (Kelvin)      0.09765     0.07283     0.04347
 Rotational constants (GHZ):           2.03467     1.51756     0.90582
 Zero-point vibrational energy     221043.2 (Joules/Mol)
                                   52.83058 (Kcal/Mol)
 Warning -- explicit consideration of  11 degrees of freedom as
           vibrations may cause significant error
 Vibrational temperatures:     93.77   137.59   162.00   198.40   257.21
          (Kelvin)            346.98   365.59   471.92   564.89   649.15
                              776.88   901.16   923.75  1010.02  1116.30
                             1142.18  1221.10  1373.87  1407.12  1539.12
                             1665.05  1790.98  1798.90  1882.43  1932.98
                             2114.66  2263.87  2271.21  2392.84  4790.54
                             4848.17  5153.33  5606.80

 Zero-point correction=                           0.084191 (Hartree/Particle)
 Thermal correction to Energy=                    0.093504
 Thermal correction to Enthalpy=                  0.094448
 Thermal correction to Gibbs Free Energy=         0.048553
 Sum of electronic and zero-point Energies=           -523.135071
 Sum of electronic and thermal Energies=              -523.125758
 Sum of electronic and thermal Enthalpies=            -523.124814
 Sum of electronic and thermal Free Energies=         -523.170709

                     E (Thermal)             CV                S
                      KCal/Mol        Cal/Mol-Kelvin    Cal/Mol-Kelvin
 Total                   58.675             31.675             96.594
 Electronic               0.000              0.000              1.377
 Translational            0.889              2.981             40.546
 Rotational               0.889              2.981             29.132
 Vibrational             56.897             25.713             25.539
 Vibration     1          0.597              1.971              4.294
 Vibration     2          0.603              1.952              3.542
 Vibration     3          0.607              1.939              3.224
 Vibration     4          0.614              1.915              2.833
 Vibration     5          0.629              1.868              2.341
 Vibration     6          0.658              1.777              1.794
 Vibration     7          0.665              1.756              1.702
 Vibration     8          0.711              1.620              1.270
 Vibration     9          0.760              1.486              0.990
 Vibration    10          0.810              1.358              0.792
 Vibration    11          0.895              1.162              0.565

 Optimization completed.
    -- Stationary point found.
 Normal termination of Gaussian 16 at Mon Nov  6 18:40:44 2023.
