 Gaussian 16, Revision A.03,
 Gaussian 16:  ES64L-G16RevA.03 25-Dec-2016

 ----------------------------------------------------------------------
 # opt=(calcfc,ts,noeigentest) freq 6-31+g(d,p) scrf=(smd,solvent=water
 ) integral=grid=ultrafine m062x
 ----------------------------------------------------------------------

 -------------------
 Title Card Required
 -------------------
 Symbolic Z-matrix:
 Charge = -1 Multiplicity = 2

 SCF Done:  E(UM062X) =  -446.749878625     A.U. after   19 cycles
 SCF Done:  E(UM062X) =  -446.769564449     A.U. after   18 cycles
 SCF Done:  E(UM062X) =  -446.768862376     A.U. after   17 cycles
 SCF Done:  E(UM062X) =  -446.772015162     A.U. after   17 cycles
 SCF Done:  E(UM062X) =  -446.773705653     A.U. after   16 cycles
 SCF Done:  E(UM062X) =  -446.774366666     A.U. after   17 cycles
 SCF Done:  E(UM062X) =  -446.775985253     A.U. after   16 cycles
 SCF Done:  E(UM062X) =  -446.774219402     A.U. after   16 cycles
 SCF Done:  E(UM062X) =  -446.775067682     A.U. after   16 cycles
 SCF Done:  E(UM062X) =  -446.776092554     A.U. after   17 cycles
 SCF Done:  E(UM062X) =  -446.776539513     A.U. after   15 cycles
 SCF Done:  E(UM062X) =  -446.776543222     A.U. after   16 cycles
 SCF Done:  E(UM062X) =  -446.776624834     A.U. after   15 cycles
 SCF Done:  E(UM062X) =  -446.776626500     A.U. after   12 cycles
 SCF Done:  E(UM062X) =  -446.776626907     A.U. after   11 cycles
 Optimization completed.
    -- Stationary point found.
 Normal termination of Gaussian 16 at Sun Nov  5 06:26:10 2023.

 ----------------------------------------------------------------------
 #N Geom=AllCheck Guess=TCheck SCRF=Check GenChk UM062X/6-31+G(d,p) Fre
 q
 ----------------------------------------------------------------------

 Structure from the checkpoint file:  "/scratch/gongke2021/sidanzuo-TS/Gau-5093.chk"
 -------------------
 Title Card Required
 -------------------
 Charge = -1 Multiplicity = 2

                         Standard orientation:
 ---------------------------------------------------------------------
 Center     Atomic      Atomic             Coordinates (Angstroms)
 Number     Number       Type             X           Y           Z
 ---------------------------------------------------------------------
      1          7           0       -0.673879    1.014209   -0.346741
      2          7           0        0.007482   -0.203669   -0.485977
      3          7           0       -0.802416   -1.263640   -0.077045
      4          7           0       -1.964505   -0.689968    0.297549
      5          6           0       -1.858426    0.618307    0.165134
      6          6           0        1.342847   -0.045749   -0.000795
      7          8           0        2.104996   -0.999908    0.121325
      8          8           0        1.569517    1.209369    0.231927
      9          1           0        0.380356    1.578965    0.064636
     10          1           0       -2.649764    1.311480    0.408812
 ---------------------------------------------------------------------

 SCF Done:  E(UM062X) =  -446.776626907     A.U. after    1 cycles

 The electronic state is 2-A.
 Alpha  occ. eigenvalues --  -19.65389 -19.63462 -14.84587 -14.80857 -14.79856
 Alpha  occ. eigenvalues --  -14.78594 -10.70835 -10.60953  -1.24937  -1.19046
 Alpha  occ. eigenvalues --   -1.13018  -1.02976  -0.97190  -0.79227  -0.71976
 Alpha  occ. eigenvalues --   -0.65840  -0.63933  -0.58628  -0.55029  -0.53157
 Alpha  occ. eigenvalues --   -0.50309  -0.49594  -0.44748  -0.39844  -0.39118
 Alpha  occ. eigenvalues --   -0.37827  -0.37080  -0.36279  -0.35572  -0.20189
 Alpha virt. eigenvalues --    0.02391   0.04278   0.04503   0.04914   0.05602
 Alpha virt. eigenvalues --    0.06827   0.07052   0.07809   0.08693   0.10547
 Alpha virt. eigenvalues --    0.11845   0.14382   0.16097   0.18009   0.18317

  Beta  occ. eigenvalues --  -19.65370 -19.63411 -14.84300 -14.80073 -14.79482
  Beta  occ. eigenvalues --  -14.78595 -10.70752 -10.60906  -1.24261  -1.18362
  Beta  occ. eigenvalues --   -1.12821  -1.01911  -0.95912  -0.77762  -0.71313
  Beta  occ. eigenvalues --   -0.64873  -0.63548  -0.56885  -0.54717  -0.52700
  Beta  occ. eigenvalues --   -0.49508  -0.48358  -0.43649  -0.38414  -0.37782
  Beta  occ. eigenvalues --   -0.36249  -0.35426  -0.35030  -0.32965
  Beta virt. eigenvalues --   -0.01915   0.02343   0.04394   0.04553   0.04876
  Beta virt. eigenvalues --    0.06563   0.07050   0.07112   0.08697   0.09428
  Beta virt. eigenvalues --    0.10694   0.11777   0.14366   0.16071   0.17795

 Mulliken charges and spin densities:
               1          2
     1  N   -0.491414   0.211278
     2  N   -0.022023   0.107844
     3  N   -0.246805   0.517001
     4  N   -0.340896   0.000801
     5  C    0.031994   0.075464
     6  C    0.738544   0.046687
     7  O   -0.691022   0.026197
     8  O   -0.671435   0.006989
     9  H    0.466983   0.012179
    10  H    0.226074  -0.004440
 Sum of Mulliken charges =  -1.00000   1.00000

 Dipole moment (field-independent basis, Debye):
    X=             -4.3154    Y=              5.5108    Z=             -0.0189  Tot=              6.9994
 Quadrupole moment (field-independent basis, Debye-Ang):
   XX=            -66.5070   YY=            -57.9061   ZZ=            -48.9695
   XY=             -5.4755   XZ=             -1.9526   YZ=              1.6617

  Exact polarizability: 113.154  -2.926 101.900  -3.870  -1.913  55.634
 Approx polarizability:  90.772  -2.418  93.560  -3.675  -2.074  52.454

 ******    1 imaginary frequencies (negative Signs) ******

                      1                      2                      3
                      A                      A                      A
 Frequencies --  -1447.7188               127.7200               150.0482
 Red. masses --      1.0862                11.7463                 9.3729
 Frc consts  --      1.3414                 0.1129                 0.1243
 IR Inten    --   3239.8642                 9.2885                 0.9965

                      4                      5                      6
                      A                      A                      A
 Frequencies --    308.8972               509.4153               563.6746
 Red. masses --      9.2237                12.1499                 7.9220
 Frc consts  --      0.5185                 1.8577                 1.4830
 IR Inten    --      5.2073                 3.2374                17.3305

                      7                      8                      9
                      A                      A                      A
 Frequencies --    638.2923               673.9351               785.3004
 Red. masses --      7.8100                 7.1818                11.8246
 Frc consts  --      1.8747                 1.9218                 4.2964
 IR Inten    --      7.8104                40.5882                43.4568

                     10                     11                     12
                      A                      A                      A
 Frequencies --    796.7721               891.6444               923.0025
 Red. masses --     12.7634                 1.4202                 6.5604
 Frc consts  --      4.7740                 0.6653                 3.2929
 IR Inten    --    248.3533                28.1705                95.7837

                     13                     14                     15
                      A                      A                      A
 Frequencies --    995.0346              1075.7871              1125.3464
 Red. masses --      7.1067                 8.6867                 1.6631
 Frc consts  --      4.1457                 5.9232                 1.2409
 IR Inten    --      7.5175                91.6235               275.5997

                     16                     17                     18
                      A                      A                      A
 Frequencies --   1177.1028              1198.1050              1264.1917
 Red. masses --      1.9950                 8.3649                 2.1505
 Frc consts  --      1.6286                 7.0746                 2.0249
 IR Inten    --     81.7681                17.5610                97.7978

                     19                     20                     21
                      A                      A                      A
 Frequencies --   1304.2206              1344.9254              1532.9592
 Red. masses --      7.2925                 6.7777                 4.7937
 Frc consts  --      7.3085                 7.2232                 6.6372
 IR Inten    --   1322.9293                 9.8614                90.5394

                     22                     23                     24
                      A                      A                      A
 Frequencies --   1722.0268              2000.6801              3322.8960
 Red. masses --      8.5970                 1.0708                 1.0991
 Frc consts  --     15.0203                 2.5253                 7.1505
 IR Inten    --   1314.7112               268.8906                 3.0654

 - Thermochemistry -
 -------------------
 Temperature   298.150 Kelvin.  Pressure   1.00000 Atm.
 Atom     1 has atomic number  7 and mass  14.00307

 Molecular mass:   114.01778 amu.
 Principal axes and moments of inertia in atomic units:
                           1         2         3
     Eigenvalues --   357.22111 921.017911221.83339
           X            0.99982  -0.01841  -0.00445
           Y            0.01844   0.99980   0.00783
           Z            0.00431  -0.00791   0.99996
 This molecule is an asymmetric top.
 Rotational symmetry number  1.
 Rotational temperatures (Kelvin)      0.24247     0.09404     0.07089
 Rotational constants (GHZ):           5.05217     1.95951     1.47708
    1 imaginary frequencies ignored.
 Zero-point vibrational energy     146135.7 (Joules/Mol)
                                   34.92727 (Kcal/Mol)
 Warning -- explicit consideration of   5 degrees of freedom as
           vibrations may cause significant error
 Vibrational temperatures:    183.76   215.89   444.43   732.93   811.00
          (Kelvin)            918.36   969.64  1129.87  1146.38  1282.88
                             1327.99  1431.63  1547.82  1619.12  1693.59
                             1723.81  1818.89  1876.48  1935.05  2205.59
                             2477.61  2878.53  4780.91

 Zero-point correction=                           0.055660 (Hartree/Particle)
 Thermal correction to Energy=                    0.061320
 Thermal correction to Enthalpy=                  0.062264
 Thermal correction to Gibbs Free Energy=         0.024739
 Sum of electronic and zero-point Energies=           -446.720967
 Sum of electronic and thermal Energies=              -446.715307
 Sum of electronic and thermal Enthalpies=            -446.714363
 Sum of electronic and thermal Free Energies=         -446.751888

                     E (Thermal)             CV                S
                      KCal/Mol        Cal/Mol-Kelvin    Cal/Mol-Kelvin
 Total                   38.479             19.851             78.979
 Electronic               0.000              0.000              1.377
 Translational            0.889              2.981             40.109
 Rotational               0.889              2.981             27.488
 Vibrational             36.702             13.890             10.004
 Vibration     1          0.611              1.925              2.980
 Vibration     2          0.618              1.903              2.672
 Vibration     3          0.698              1.657              1.368
 Vibration     4          0.865              1.229              0.635
 Vibration     5          0.919              1.110              0.517

 Optimization completed.
    -- Stationary point found.
 Normal termination of Gaussian 16 at Sun Nov  5 06:27:50 2023.
