 Gaussian 16, Revision A.03,
 Gaussian 16:  ES64L-G16RevA.03 25-Dec-2016

 -----------------------------------------------------
 # opt freq 6-31+g(d,p) m062x scrf=(SMD,solvent=water)
 -----------------------------------------------------

 ----------
 "Sketch 2"
 ----------
 Symbolic Z-matrix:
 Charge = -2 Multiplicity = 1

 SCF Done:  E(RM062X) =  -430.814913127     A.U. after   16 cycles
 SCF Done:  E(RM062X) =  -430.817662506     A.U. after   14 cycles
 SCF Done:  E(RM062X) =  -430.818017571     A.U. after   13 cycles
 SCF Done:  E(RM062X) =  -430.818042366     A.U. after   11 cycles
 SCF Done:  E(RM062X) =  -430.818044821     A.U. after   10 cycles
 Optimization completed.
    -- Stationary point found.
 Normal termination of Gaussian 16 at Sun Jul 23 00:46:14 2023.

 ----------------------------------------------------------------------
 #N Geom=AllCheck Guess=TCheck SCRF=Check GenChk RM062X/6-31+G(d,p) Fre
 q
 ----------------------------------------------------------------------

 Structure from the checkpoint file:  "/scratch/gongke2021/1-H-Tz-2-eletron/Gau-22670.chk"
 ----------
 "Sketch 2"
 ----------
 Charge = -2 Multiplicity = 1

                         Standard orientation:
 ---------------------------------------------------------------------
 Center     Atomic      Atomic             Coordinates (Angstroms)
 Number     Number       Type             X           Y           Z
 ---------------------------------------------------------------------
      1          7           0       -0.009680   -0.094077   -0.000226
      2          7           0        0.689385    1.151334   -0.000383
      3          6           0        2.019457    0.707554    0.000176
      4          6           0        2.089890   -0.647501    0.000308
      5          7           0        0.821255   -1.242562   -0.000336
      6          1           0        2.824259    1.431030    0.000325
      7          1           0        2.971371   -1.275812    0.000583
      8          1           0       -1.173893    1.773939    0.000328
      9          6           0       -1.315197   -0.125176    0.000076
     10          8           0       -1.912206    1.132681    0.000169
     11          8           0       -2.074464   -1.162840    0.000083
 ---------------------------------------------------------------------

 SCF Done:  E(RM062X) =  -430.818044821     A.U. after    1 cycles

 The electronic state is 1-A.
 Alpha  occ. eigenvalues --  -19.65125 -19.58392 -14.81440 -14.71464 -14.71218
 Alpha  occ. eigenvalues --  -10.63417 -10.52116 -10.52017  -1.18495  -1.09991
 Alpha  occ. eigenvalues --   -1.06885  -0.89296  -0.89010  -0.71905  -0.63525
 Alpha  occ. eigenvalues --   -0.62779  -0.56233  -0.51963  -0.49852  -0.48971
 Alpha  occ. eigenvalues --   -0.45385  -0.43204  -0.42629  -0.36410  -0.35278
 Alpha  occ. eigenvalues --   -0.33470  -0.30587  -0.29927  -0.28403  -0.11703
 Alpha virt. eigenvalues --    0.02935   0.04732   0.04985   0.05915   0.07316
 Alpha virt. eigenvalues --    0.07358   0.09199   0.09570   0.10596   0.11532
 Alpha virt. eigenvalues --    0.12303   0.14031   0.15284   0.15824   0.16885

 Mulliken charges:
               1
     1  N    0.106102
     2  N   -0.781468
     3  C   -0.235079
     4  C   -0.210635
     5  N   -0.743856
     6  H    0.157521
     7  H    0.155136
     8  H    0.429371
     9  C    0.672462
    10  O   -0.633092
    11  O   -0.916462
 Sum of Mulliken charges =  -2.00000

 Dipole moment (field-independent basis, Debye):
    X=              4.9394    Y=              5.1565    Z=              0.0023  Tot=              7.1405
 Quadrupole moment (field-independent basis, Debye-Ang):
   XX=            -78.9829   YY=            -69.5237   ZZ=            -56.1900
   XY=             -6.3271   XZ=              0.0017   YZ=              0.0010

  Exact polarizability: 168.955   7.691 136.941   0.020  -0.002  87.111
 Approx polarizability: 126.261   5.027 109.939   0.007  -0.002  66.862

 ******    1 imaginary frequencies (negative Signs) ******

                      1                      2                      3
                      A                      A                      A
 Frequencies --    -89.2104               181.7230               243.8757
 Red. masses --      6.8160                 6.6200                 6.2830
 Frc consts  --      0.0320                 0.1288                 0.2202
 IR Inten    --     38.1428                 5.3960                26.8702

                      4                      5                      6
                      A                      A                      A
 Frequencies --    247.4871               417.2235               436.3795
 Red. masses --      8.3986                 1.1984                 7.6935
 Frc consts  --      0.3031                 0.1229                 0.8632
 IR Inten    --     30.8352               185.6046                 2.9645

                      7                      8                      9
                      A                      A                      A
 Frequencies --    552.6422               560.7862               571.5772
 Red. masses --      5.4475                 7.3458                12.5794
 Frc consts  --      0.9802                 1.3611                 2.4214
 IR Inten    --      3.0176               102.5479                 4.4694

                     10                     11                     12
                      A                      A                      A
 Frequencies --    629.6841               680.5772               781.8353
 Red. masses --      1.1722                11.3771                 1.1979
 Frc consts  --      0.2738                 3.1048                 0.4314
 IR Inten    --    252.4150                88.6737                 0.6392

                     13                     14                     15
                      A                      A                      A
 Frequencies --    801.1865               928.6638              1027.0530
 Red. masses --      7.5218                 8.0543                 2.8428
 Frc consts  --      2.8447                 4.0926                 1.7668
 IR Inten    --    132.1451                12.3920               537.3865

                     16                     17                     18
                      A                      A                      A
 Frequencies --   1056.9828              1103.6218              1116.2440
 Red. masses --      5.4394                 6.1082                 1.4072
 Frc consts  --      3.5805                 4.3833                 1.0330
 IR Inten    --    351.9219                24.4689                 1.1708

                     19                     20                     21
                      A                      A                      A
 Frequencies --   1209.5782              1285.8227              1350.1050
 Red. masses --      5.4036                 1.5291                 1.6817
 Frc consts  --      4.6581                 1.4895                 1.8061
 IR Inten    --    372.0679               595.8013               138.4826

                     22                     23                     24
                      A                      A                      A
 Frequencies --   1421.3575              1587.1149              1793.6301
 Red. masses --      6.5813                 5.8656                 9.6314
 Frc consts  --      7.8338                 8.7052                18.2561
 IR Inten    --    565.4934               379.0481               413.5965

                     25                     26                     27
                      A                      A                      A
 Frequencies --   3258.1775              3282.0779              3639.6524
 Red. masses --      1.0865                 1.1054                 1.0652
 Frc consts  --      6.7957                 7.0154                 8.3140
 IR Inten    --      0.6674                34.0315               196.5837

 - Thermochemistry -
 -------------------
 Temperature   298.150 Kelvin.  Pressure   1.00000 Atm.
 Atom     1 has atomic number  7 and mass  14.00307

 Molecular mass:   113.02253 amu.
 Principal axes and moments of inertia in atomic units:
                           1         2         3
     Eigenvalues --   358.924051013.056011371.98001
           X            0.99995  -0.00949   0.00001
           Y            0.00949   0.99995  -0.00001
           Z           -0.00001   0.00001   1.00000
 This molecule is an asymmetric top.
 Rotational symmetry number  1.
 Rotational temperatures (Kelvin)      0.24132     0.08550     0.06313
 Rotational constants (GHZ):           5.02820     1.78148     1.31543
    1 imaginary frequencies ignored.
 Zero-point vibrational energy     180427.1 (Joules/Mol)
                                   43.12312 (Kcal/Mol)
 Warning -- explicit consideration of   8 degrees of freedom as
           vibrations may cause significant error
 Vibrational temperatures:    261.46   350.88   356.08   600.29   627.85
          (Kelvin)            795.13   806.85   822.37   905.98   979.20
                             1124.89  1152.73  1336.14  1477.70  1520.76
                             1587.87  1606.03  1740.31  1850.01  1942.50
                             2045.02  2283.50  2580.63  4687.79  4722.18
                             5236.65

 Zero-point correction=                           0.068721 (Hartree/Particle)
 Thermal correction to Energy=                    0.074879
 Thermal correction to Enthalpy=                  0.075823
 Thermal correction to Gibbs Free Energy=         0.038477
 Sum of electronic and zero-point Energies=           -430.749324
 Sum of electronic and thermal Energies=              -430.743166
 Sum of electronic and thermal Enthalpies=            -430.742221
 Sum of electronic and thermal Free Energies=         -430.779568

                     E (Thermal)             CV                S
                      KCal/Mol        Cal/Mol-Kelvin    Cal/Mol-Kelvin
 Total                   46.987             23.030             78.602
 Electronic               0.000              0.000              0.000
 Translational            0.889              2.981             40.083
 Rotational               0.889              2.981             27.703
 Vibrational             45.210             17.069             10.817
 Vibration     1          0.630              1.865              2.311
 Vibration     2          0.659              1.773              1.774
 Vibration     3          0.661              1.767              1.748
 Vibration     4          0.780              1.433              0.901
 Vibration     5          0.797              1.391              0.838
 Vibration     6          0.908              1.134              0.539
 Vibration     7          0.916              1.116              0.522
 Vibration     8          0.928              1.093              0.501

 Optimization completed.
    -- Stationary point found.
 Normal termination of Gaussian 16 at Sun Jul 23 00:47:36 2023.
