 Gaussian 16, Revision A.03,
 Gaussian 16:  ES64L-G16RevA.03 25-Dec-2016

 -----------------------------------------------------
 # opt freq 6-31+g(d,p) m062x scrf=(SMD,solvent=water)
 -----------------------------------------------------

 ----------
 "Sketch 2"
 ----------
 Symbolic Z-matrix:
 Charge =  0 Multiplicity = 1

 SCF Done:  E(RM062X) =  -430.642363563     A.U. after   14 cycles
 SCF Done:  E(RM062X) =  -430.662087965     A.U. after   13 cycles
 SCF Done:  E(RM062X) =  -430.668761742     A.U. after   13 cycles
 SCF Done:  E(RM062X) =  -430.670987965     A.U. after   12 cycles
 SCF Done:  E(RM062X) =  -430.671264976     A.U. after   11 cycles
 SCF Done:  E(RM062X) =  -430.670690359     A.U. after   12 cycles
 SCF Done:  E(RM062X) =  -430.671444565     A.U. after   11 cycles
 SCF Done:  E(RM062X) =  -430.671432284     A.U. after   11 cycles
 SCF Done:  E(RM062X) =  -430.671448142     A.U. after   10 cycles
 Optimization completed.
    -- Stationary point found.
 Normal termination of Gaussian 16 at Sat Jul  1 02:56:33 2023.

 ----------------------------------------------------------------------
 #N Geom=AllCheck Guess=TCheck SCRF=Check GenChk RM062X/6-31+G(d,p) Fre
 q
 ----------------------------------------------------------------------

 Structure from the checkpoint file:  "/scratch/gongke2021/1-H-Tz-PC/Gau-6627.chk"
 ----------
 "Sketch 2"
 ----------
 Charge =  0 Multiplicity = 1

                         Standard orientation:
 ---------------------------------------------------------------------
 Center     Atomic      Atomic             Coordinates (Angstroms)
 Number     Number       Type             X           Y           Z
 ---------------------------------------------------------------------
      1          7           0        0.050851   -0.057684    0.000042
      2          7           0        0.713556    1.102942   -0.000368
      3          6           0        1.980205    0.741618    0.000306
      4          6           0        2.040419   -0.673799   -0.000049
      5          7           0        0.812356   -1.152320   -0.000082
      6          1           0        2.777899    1.469063    0.000509
      7          1           0        2.900652   -1.325860   -0.000030
      8          1           0       -1.324053    1.799271   -0.000409
      9          6           0       -1.365776   -0.119326   -0.000051
     10          8           0       -1.960882    1.058724    0.000132
     11          8           0       -1.954233   -1.169223    0.000061
 ---------------------------------------------------------------------

 SCF Done:  E(RM062X) =  -430.671448142     A.U. after    1 cycles

 The electronic state is 1-A.
 Alpha  occ. eigenvalues --  -19.72023 -19.67059 -14.90668 -14.83584 -14.83242
 Alpha  occ. eigenvalues --  -10.75798 -10.60387 -10.60169  -1.29342  -1.24026
 Alpha  occ. eigenvalues --   -1.18457  -1.03161  -0.97449  -0.78436  -0.74255
 Alpha  occ. eigenvalues --   -0.72561  -0.66263  -0.61530  -0.58204  -0.56461
 Alpha  occ. eigenvalues --   -0.53881  -0.53270  -0.50490  -0.42763  -0.42687
 Alpha  occ. eigenvalues --   -0.41565  -0.39829  -0.38301  -0.35404
 Alpha virt. eigenvalues --   -0.03030   0.01469   0.03589   0.03859   0.04645
 Alpha virt. eigenvalues --    0.06150   0.06181   0.06292   0.08153   0.08706
 Alpha virt. eigenvalues --    0.09408   0.10716   0.10869   0.11599   0.14428

 Mulliken charges:
               1
     1  N   -0.164996
     2  N   -0.160834
     3  C   -0.147087
     4  C   -0.115745
     5  N   -0.135719
     6  H    0.244992
     7  H    0.242849
     8  H    0.459976
     9  C    0.786587
    10  O   -0.485869
    11  O   -0.524153
 Sum of Mulliken charges =  -0.00000

 Dipole moment (field-independent basis, Debye):
    X=              6.1366    Y=              4.3491    Z=             -0.0006  Tot=              7.5215
 Quadrupole moment (field-independent basis, Debye-Ang):
   XX=            -42.2812   YY=            -47.2237   ZZ=            -45.2717
   XY=             -5.0580   XZ=              0.0040   YZ=             -0.0005

  Exact polarizability: 110.724   5.764  88.840   0.004   0.001  44.922
 Approx polarizability:  94.622   5.139  84.660   0.004  -0.001  43.021

                      1                      2                      3
                      A                      A                      A
 Frequencies --    105.2708               158.3944               255.1647
 Red. masses --      6.9559                 6.8205                 6.6844
 Frc consts  --      0.0454                 0.1008                 0.2564
 IR Inten    --      7.9525                 1.0548                14.8636

                      4                      5                      6
                      A                      A                      A
 Frequencies --    461.2100               499.0316               564.5871
 Red. masses --      8.3508                 1.1231                 7.8494
 Frc consts  --      1.0466                 0.1648                 1.4742
 IR Inten    --      2.8634               227.3121                19.7597

                      7                      8                      9
                      A                      A                      A
 Frequencies --    659.9433               670.3058               753.1845
 Red. masses --     12.8896                 3.4523                10.5459
 Frc consts  --      3.3075                 0.9139                 3.5248
 IR Inten    --     16.5408                 0.0165                26.6909

                     10                     11                     12
                      A                      A                      A
 Frequencies --    753.6085               883.7922               947.5137
 Red. masses --      8.7037                 1.1847                 1.4133
 Frc consts  --      2.9124                 0.5452                 0.7476
 IR Inten    --    114.5117                74.9052                 0.5702

                     13                     14                     15
                      A                      A                      A
 Frequencies --    952.0828               982.2213              1075.9252
 Red. masses --      7.4815                 5.1277                 1.6349
 Frc consts  --      3.9957                 2.9147                 1.1151
 IR Inten    --     37.9719               171.3295                58.8549

                     16                     17                     18
                      A                      A                      A
 Frequencies --   1201.3316              1228.7184              1286.1442
 Red. masses --      2.2294                 2.2189                 1.8117
 Frc consts  --      1.8957                 1.9738                 1.7657
 IR Inten    --     94.4890                 4.4307               218.7559

                     19                     20                     21
                      A                      A                      A
 Frequencies --   1344.3943              1360.2454              1393.5713
 Red. masses --      3.9745                 5.7227                 3.7621
 Frc consts  --      4.2324                 6.2386                 4.3047
 IR Inten    --    749.5159                12.3698               740.0964

                     22                     23                     24
                      A                      A                      A
 Frequencies --   1489.7813              1589.1326              1844.1747
 Red. masses --      5.2194                 6.1516                10.2560
 Frc consts  --      6.8252                 9.1529                20.5509
 IR Inten    --     51.9814                 5.9917              1177.2610

                     25                     26                     27
                      A                      A                      A
 Frequencies --   3315.1587              3327.6244              3713.2586
 Red. masses --      1.0963                 1.1053                 1.0663
 Frc consts  --      7.0990                 7.2110                 8.6626
 IR Inten    --      5.3336                 7.9763               347.3429

 - Thermochemistry -
 -------------------
 Temperature   298.150 Kelvin.  Pressure   1.00000 Atm.
 Atom     1 has atomic number  7 and mass  14.00307

 Molecular mass:   113.02253 amu.
 Principal axes and moments of inertia in atomic units:
                           1         2         3
     Eigenvalues --   338.68744 986.597161325.28457
           X            0.99994  -0.01133   0.00001
           Y            0.01133   0.99994   0.00000
           Z           -0.00001  -0.00000   1.00000
 This molecule is an asymmetric top.
 Rotational symmetry number  1.
 Rotational temperatures (Kelvin)      0.25573     0.08779     0.06535
 Rotational constants (GHZ):           5.32863     1.82926     1.36178
 Zero-point vibrational energy     196281.9 (Joules/Mol)
                                   46.91250 (Kcal/Mol)
 Warning -- explicit consideration of   6 degrees of freedom as
           vibrations may cause significant error
 Vibrational temperatures:    151.46   227.89   367.13   663.58   718.00
          (Kelvin)            812.31   949.51   964.42  1083.66  1084.27
                             1271.58  1363.26  1369.83  1413.20  1548.02
                             1728.45  1767.85  1850.47  1934.28  1957.09
                             2005.04  2143.46  2286.41  2653.36  4769.77
                             4787.71  5342.55

 Zero-point correction=                           0.074760 (Hartree/Particle)
 Thermal correction to Energy=                    0.080818
 Thermal correction to Enthalpy=                  0.081762
 Thermal correction to Gibbs Free Energy=         0.044151
 Sum of electronic and zero-point Energies=           -430.596688
 Sum of electronic and thermal Energies=              -430.590630
 Sum of electronic and thermal Enthalpies=            -430.589686
 Sum of electronic and thermal Free Energies=         -430.627297

                     E (Thermal)             CV                S
                      KCal/Mol        Cal/Mol-Kelvin    Cal/Mol-Kelvin
 Total                   50.714             21.655             79.160
 Electronic               0.000              0.000              0.000
 Translational            0.889              2.981             40.083
 Rotational               0.889              2.981             27.584
 Vibrational             48.937             15.693             11.493
 Vibration     1          0.605              1.945              3.354
 Vibration     2          0.621              1.893              2.569
 Vibration     3          0.666              1.754              1.695
 Vibration     4          0.819              1.336              0.763
 Vibration     5          0.854              1.252              0.661
 Vibration     6          0.920              1.108              0.515

 Optimization completed.
    -- Stationary point found.
 Normal termination of Gaussian 16 at Sat Jul  1 02:57:54 2023.
