 Gaussian 16, Revision A.03,
 Gaussian 16:  ES64L-G16RevA.03 25-Dec-2016

 ----------------------------------------------------------------------
 # opt=(calcfc,ts,noeigentest) freq 6-31+g(d,p) integral=grid=ultrafine
  m062x scrf=(SMD,solvent=water)
 ----------------------------------------------------------------------

 ----------
 "Sketch 2"
 ----------
 Symbolic Z-matrix:
 Charge =  0 Multiplicity = 1

 SCF Done:  E(RM062X) =  -430.602127053     A.U. after   14 cycles
 SCF Done:  E(RM062X) =  -430.621419958     A.U. after   13 cycles
 SCF Done:  E(RM062X) =  -430.636370670     A.U. after   13 cycles
 SCF Done:  E(RM062X) =  -430.642299713     A.U. after   12 cycles
 SCF Done:  E(RM062X) =  -430.642478349     A.U. after   12 cycles
 SCF Done:  E(RM062X) =  -430.643013482     A.U. after   12 cycles
 SCF Done:  E(RM062X) =  -430.643045388     A.U. after   11 cycles
 SCF Done:  E(RM062X) =  -430.643049102     A.U. after   10 cycles
 Optimization completed.
    -- Stationary point found.
 Normal termination of Gaussian 16 at Sat Jul  1 02:52:35 2023.

 ----------------------------------------------------------------------
 #N Geom=AllCheck Guess=TCheck SCRF=Check GenChk RM062X/6-31+G(d,p) Fre
 q
 ----------------------------------------------------------------------

 Structure from the checkpoint file:  "/scratch/gongke2021/1-H-Tz-opt/Gau-4138.chk"
 ----------
 "Sketch 2"
 ----------
 Charge =  0 Multiplicity = 1

                         Standard orientation:
 ---------------------------------------------------------------------
 Center     Atomic      Atomic             Coordinates (Angstroms)
 Number     Number       Type             X           Y           Z
 ---------------------------------------------------------------------
      1          7           0       -0.025522   -0.203198    0.001979
      2          7           0       -0.616282    0.979313    0.001263
      3          6           0       -1.919948    0.749965   -0.000754
      4          6           0       -2.056541   -0.651328   -0.000774
      5          7           0       -0.847050   -1.217074    0.000352
      6          1           0       -2.654677    1.540294   -0.001748
      7          1           0       -2.957489   -1.244682   -0.002298
      8          1           0        0.428484    1.608676    0.000102
      9          6           0        1.454322   -0.066463   -0.000300
     10          8           0        1.696579    1.182731   -0.000768
     11          8           0        2.145753   -1.059059   -0.000512
 ---------------------------------------------------------------------

 SCF Done:  E(RM062X) =  -430.643049102     A.U. after    1 cycles

 The electronic state is 1-A.
 Alpha  occ. eigenvalues --  -19.67406 -19.66219 -14.91545 -14.87444 -14.84802
 Alpha  occ. eigenvalues --  -10.74412 -10.62822 -10.61110  -1.30429  -1.22980
 Alpha  occ. eigenvalues --   -1.16277  -1.05746  -0.97376  -0.77745  -0.77084
 Alpha  occ. eigenvalues --   -0.70272  -0.65522  -0.62439  -0.57589  -0.56603
 Alpha  occ. eigenvalues --   -0.54778  -0.53525  -0.52705  -0.42999  -0.41314
 Alpha  occ. eigenvalues --   -0.41141  -0.39398  -0.39261  -0.36132
 Alpha virt. eigenvalues --   -0.03349   0.01502   0.03600   0.03871   0.04700
 Alpha virt. eigenvalues --    0.05026   0.05975   0.06343   0.08554   0.08601
 Alpha virt. eigenvalues --    0.09359   0.10539   0.10865   0.11242   0.14789

 Mulliken charges:
               1
     1  N   -0.153433
     2  N   -0.147976
     3  C   -0.134723
     4  C   -0.134684
     5  N   -0.103623
     6  H    0.271753
     7  H    0.251861
     8  H    0.503173
     9  C    0.847568
    10  O   -0.621388
    11  O   -0.578528
 Sum of Mulliken charges =  -0.00000

 Dipole moment (field-independent basis, Debye):
    X=             -9.6648    Y=              3.8071    Z=             -0.0019  Tot=             10.3876
 Quadrupole moment (field-independent basis, Debye-Ang):
   XX=            -45.5321   YY=            -48.0347   ZZ=            -45.1262
   XY=             -0.2152   XZ=              0.0190   YZ=              0.0004

  Exact polarizability: 110.040  -5.338  89.088   0.033   0.000  43.995
 Approx polarizability:  94.141  -5.359  86.812   0.038   0.002  42.343

 ******    1 imaginary frequencies (negative Signs) ******

                      1                      2                      3
                      A                      A                      A
 Frequencies --  -1416.9882               135.8515               163.2790
 Red. masses --      1.0838                 6.8317                 9.7206
 Frc consts  --      1.2821                 0.0743                 0.1527
 IR Inten    --   2951.3433                 0.3371                 0.5862

                      4                      5                      6
                      A                      A                      A
 Frequencies --    304.8038               560.0219               634.4783
 Red. masses --      9.0805                 8.0688                10.8274
 Frc consts  --      0.4970                 1.4910                 2.5681
 IR Inten    --      4.7235                 8.8894                99.8349

                      7                      8                      9
                      A                      A                      A
 Frequencies --    655.5217               667.5351               760.3444
 Red. masses --      3.8441                 8.2128                12.1666
 Frc consts  --      0.9732                 2.1562                 4.1442
 IR Inten    --      3.4377                 3.4777                35.9550

                     10                     11                     12
                      A                      A                      A
 Frequencies --    785.0277               867.3969               940.8969
 Red. masses --     13.8406                 1.1903                 1.4088
 Frc consts  --      5.0255                 0.5276                 0.7348
 IR Inten    --    534.5863                92.7502                 0.0164

                     13                     14                     15
                      A                      A                      A
 Frequencies --    973.8289              1037.6656              1102.6827
 Red. masses --      6.6882                 1.9902                 2.9501
 Frc consts  --      3.7370                 1.2626                 2.1134
 IR Inten    --     29.4066                52.1822               135.7248

                     16                     17                     18
                      A                      A                      A
 Frequencies --   1139.5925              1211.4108              1261.6545
 Red. masses --      1.0620                 1.5439                 5.1290
 Frc consts  --      0.8126                 1.3349                 4.8102
 IR Inten    --    161.4822               173.0526              1049.6969

                     19                     20                     21
                      A                      A                      A
 Frequencies --   1303.3640              1370.4793              1455.3911
 Red. masses --      7.3325                 8.1628                 6.5958
 Frc consts  --      7.3389                 9.0331                 8.2314
 IR Inten    --     27.3109                90.7585                99.8909

                     22                     23                     24
                      A                      A                      A
 Frequencies --   1481.4004              1571.7880              1846.6953
 Red. masses --      4.2065                 6.2891                10.9710
 Frc consts  --      5.4390                 9.1543                22.0438
 IR Inten    --      4.4696                10.7555              1240.0285

                     25                     26                     27
                      A                      A                      A
 Frequencies --   2107.0521              3325.5897              3338.4820
 Red. masses --      1.0650                 1.0985                 1.1062
 Frc consts  --      2.7858                 7.1579                 7.2643
 IR Inten    --    615.6099                23.9177                16.9296

 - Thermochemistry -
 -------------------
 Temperature   298.150 Kelvin.  Pressure   1.00000 Atm.
 Atom     1 has atomic number  7 and mass  14.00307

 Molecular mass:   113.02253 amu.
 Principal axes and moments of inertia in atomic units:
                           1         2         3
     Eigenvalues --   333.84689 968.820271302.66634
           X            1.00000   0.00107   0.00004
           Y           -0.00107   1.00000   0.00000
           Z           -0.00004  -0.00000   1.00000
 This molecule is an asymmetric top.
 Rotational symmetry number  1.
 Rotational temperatures (Kelvin)      0.25944     0.08940     0.06649
 Rotational constants (GHZ):           5.40589     1.86282     1.38542
    1 imaginary frequencies ignored.
 Zero-point vibrational energy     185434.5 (Joules/Mol)
                                   44.31992 (Kcal/Mol)
 Warning -- explicit consideration of   4 degrees of freedom as
           vibrations may cause significant error
 Vibrational temperatures:    195.46   234.92   438.54   805.75   912.87
          (Kelvin)            943.15   960.43  1093.97  1129.48  1247.99
                             1353.74  1401.12  1492.97  1586.51  1639.62
                             1742.95  1815.24  1875.25  1971.81  2093.98
                             2131.40  2261.45  2656.98  3031.58  4784.78
                             4803.33

 Zero-point correction=                           0.070628 (Hartree/Particle)
 Thermal correction to Energy=                    0.076212
 Thermal correction to Enthalpy=                  0.077156
 Thermal correction to Gibbs Free Energy=         0.040473
 Sum of electronic and zero-point Energies=           -430.572421
 Sum of electronic and thermal Energies=              -430.566837
 Sum of electronic and thermal Enthalpies=            -430.565893
 Sum of electronic and thermal Free Energies=         -430.602576

                     E (Thermal)             CV                S
                      KCal/Mol        Cal/Mol-Kelvin    Cal/Mol-Kelvin
 Total                   47.824             19.858             77.205
 Electronic               0.000              0.000              0.000
 Translational            0.889              2.981             40.083
 Rotational               0.889              2.981             27.535
 Vibrational             46.046             13.897              9.588
 Vibration     1          0.614              1.918              2.861
 Vibration     2          0.623              1.888              2.511
 Vibration     3          0.696              1.665              1.390
 Vibration     4          0.916              1.118              0.524

                           ! Non-Optimized Parameters !
 Normal termination of Gaussian 16 at Sat Jul  1 02:53:58 2023.
