 Gaussian 16, Revision A.03,
 Gaussian 16:  ES64L-G16RevA.03 25-Dec-2016

 -----------------------------------------------------
 # opt freq 6-31+g(d,p) m062x scrf=(SMD,solvent=water)
 -----------------------------------------------------

 --
 RC
 --
 Symbolic Z-matrix:
 Charge = -1 Multiplicity = 2

 SCF Done:  E(UM062X) =  -430.745229113     A.U. after   18 cycles
 SCF Done:  E(UM062X) =  -430.759184245     A.U. after   18 cycles
 SCF Done:  E(UM062X) =  -430.742557345     A.U. after   17 cycles
 SCF Done:  E(UM062X) =  -430.765912631     A.U. after   16 cycles
 SCF Done:  E(UM062X) =  -430.768621124     A.U. after   14 cycles
 SCF Done:  E(UM062X) =  -430.768174470     A.U. after   14 cycles
 SCF Done:  E(UM062X) =  -430.768771845     A.U. after   13 cycles
 SCF Done:  E(UM062X) =  -430.768829516     A.U. after   13 cycles
 SCF Done:  E(UM062X) =  -430.768834902     A.U. after   11 cycles
 SCF Done:  E(UM062X) =  -430.768836040     A.U. after   10 cycles
 SCF Done:  E(UM062X) =  -430.771606392     A.U. after   14 cycles
 SCF Done:  E(UM062X) =  -430.771676878     A.U. after   14 cycles
 SCF Done:  E(UM062X) =  -430.771621358     A.U. after   14 cycles
 SCF Done:  E(UM062X) =  -430.771702092     A.U. after   14 cycles
 SCF Done:  E(UM062X) =  -430.771685672     A.U. after   12 cycles
 SCF Done:  E(UM062X) =  -430.771702364     A.U. after   13 cycles
 SCF Done:  E(UM062X) =  -430.771703326     A.U. after   12 cycles
 SCF Done:  E(UM062X) =  -430.771703478     A.U. after   10 cycles
 SCF Done:  E(UM062X) =  -430.771703503     A.U. after   10 cycles
 Optimization completed.
    -- Stationary point found.
 Normal termination of Gaussian 16 at Sat Jul  1 05:11:57 2023.

 ----------------------------------------------------------------------
 #N Geom=AllCheck Guess=TCheck SCRF=Check GenChk UM062X/6-31+G(d,p) Fre
 q
 ----------------------------------------------------------------------

 Structure from the checkpoint file:  "RC.chk"
 --
 RC
 --
 Charge = -1 Multiplicity = 2

                         Standard orientation:
 ---------------------------------------------------------------------
 Center     Atomic      Atomic             Coordinates (Angstroms)
 Number     Number       Type             X           Y           Z
 ---------------------------------------------------------------------
      1          7           0        0.033291   -0.067114    0.103495
      2          7           0       -0.736171    1.086822   -0.061280
      3          6           0       -2.051800    0.635992   -0.027957
      4          6           0       -2.002001   -0.731850   -0.025410
      5          7           0       -0.729780   -1.196133    0.025066
      6          1           0       -2.879234    1.326477   -0.064634
      7          1           0       -2.830268   -1.424129   -0.069085
      8          1           0       -0.431265    1.870319    0.513900
      9          6           0        1.446229   -0.019090   -0.006857
     10          8           0        1.933364    1.141153   -0.044427
     11          8           0        2.043487   -1.122154   -0.016798
 ---------------------------------------------------------------------

 SCF Done:  E(UM062X) =  -430.771703503     A.U. after    1 cycles

 The electronic state is 2-A.
 Alpha  occ. eigenvalues --  -19.60645 -19.60584 -14.85191 -14.82777 -14.78577
 Alpha  occ. eigenvalues --  -10.68489 -10.57965 -10.57400  -1.21837  -1.15852
 Alpha  occ. eigenvalues --   -1.08226  -1.00240  -0.93056  -0.76088  -0.70240
 Alpha  occ. eigenvalues --   -0.67971  -0.59128  -0.57044  -0.53558  -0.52686
 Alpha  occ. eigenvalues --   -0.50520  -0.48996  -0.47937  -0.39758  -0.38525
 Alpha  occ. eigenvalues --   -0.36594  -0.34689  -0.34421  -0.33477  -0.18650
 Alpha virt. eigenvalues --    0.02230   0.04017   0.04502   0.05314   0.06135
 Alpha virt. eigenvalues --    0.06593   0.06984   0.09063   0.09562   0.10742
 Alpha virt. eigenvalues --    0.11256   0.11978   0.12472   0.15775   0.16104

  Beta  occ. eigenvalues --  -19.60589 -19.60522 -14.84842 -14.82397 -14.78009
  Beta  occ. eigenvalues --  -10.68480 -10.57761 -10.57498  -1.20919  -1.15339
  Beta  occ. eigenvalues --   -1.08008  -0.98741  -0.92065  -0.74889  -0.69683
  Beta  occ. eigenvalues --   -0.67097  -0.58195  -0.55468  -0.52925  -0.52220
  Beta  occ. eigenvalues --   -0.50114  -0.48660  -0.46613  -0.37260  -0.36262
  Beta  occ. eigenvalues --   -0.35091  -0.33725  -0.33053  -0.31713
  Beta virt. eigenvalues --   -0.01616   0.02064   0.04002   0.04423   0.05131
  Beta virt. eigenvalues --    0.06508   0.06887   0.07440   0.08877   0.08911
  Beta virt. eigenvalues --    0.10915   0.11485   0.12169   0.13363   0.15557

 Mulliken charges and spin densities:
               1          2
     1  N   -0.031911   0.127254
     2  N   -0.363809   0.171462
     3  C   -0.192174   0.314840
     4  C   -0.147574  -0.144504
     5  N   -0.357406   0.441351
     6  H    0.231554  -0.012303
     7  H    0.214850   0.003422
     8  H    0.393090   0.012805
     9  C    0.788664   0.026991
    10  O   -0.773109   0.027890
    11  O   -0.762174   0.030791
 Sum of Mulliken charges =  -1.00000   1.00000

 Dipole moment (field-independent basis, Debye):
    X=            -12.0872    Y=              4.0416    Z=              1.1787  Tot=             12.7994
 Quadrupole moment (field-independent basis, Debye-Ang):
   XX=            -64.2397   YY=            -56.3628   ZZ=            -49.1029
   XY=             -1.3389   XZ=              0.3868   YZ=              2.6074

  Exact polarizability: 126.676  -3.017 112.263  -0.105  -0.420  57.192
 Approx polarizability:  93.486  -2.811  98.123  -0.045  -0.608  51.333

                      1                      2                      3
                      A                      A                      A
 Frequencies --     76.9049               116.0586               245.4858
 Red. masses --      6.5857                 8.1884                 7.0773
 Frc consts  --      0.0229                 0.0650                 0.2513
 IR Inten    --      0.0904                 4.8774                 7.9636

                      4                      5                      6
                      A                      A                      A
 Frequencies --    366.2643               451.4632               550.6588
 Red. masses --      3.9791                10.6817                 3.8955
 Frc consts  --      0.3145                 1.2827                 0.6960
 IR Inten    --     23.6175                 3.2645               103.4458

                      7                      8                      9
                      A                      A                      A
 Frequencies --    578.2736               636.7810               698.0553
 Red. masses --      3.6876                 1.7878                 1.4018
 Frc consts  --      0.7265                 0.4271                 0.4025
 IR Inten    --     36.8376               185.5567               103.6173

                     10                     11                     12
                      A                      A                      A
 Frequencies --    764.1216               785.9582               905.7528
 Red. masses --     12.4296                 9.6510                 1.3320
 Frc consts  --      4.2759                 3.5125                 0.6438
 IR Inten    --     68.5636               183.3923                10.3514

                     13                     14                     15
                      A                      A                      A
 Frequencies --    920.1344               937.9585              1078.4394
 Red. masses --      3.7144                 5.6681                 1.6341
 Frc consts  --      1.8529                 2.9380                 1.1197
 IR Inten    --     34.7196                 4.4865               200.2014

                     16                     17                     18
                      A                      A                      A
 Frequencies --   1121.3396              1203.7611              1244.7747
 Red. masses --      1.3815                 2.7908                 5.4474
 Frc consts  --      1.0235                 2.3827                 4.9731
 IR Inten    --     10.7388                21.5724                20.6266

                     19                     20                     21
                      A                      A                      A
 Frequencies --   1286.8206              1341.0975              1394.5084
 Red. masses --      8.9309                 4.8545                 2.6560
 Frc consts  --      8.7133                 5.1442                 3.0431
 IR Inten    --      9.9506              1647.0995               322.9188

                     22                     23                     24
                      A                      A                      A
 Frequencies --   1438.5323              1544.6413              1633.5440
 Red. masses --      2.3243                 4.2726                12.7529
 Frc consts  --      2.8339                 6.0061                20.0503
 IR Inten    --     57.6899                 7.5926              1397.1976

                     25                     26                     27
                      A                      A                      A
 Frequencies --   3302.9663              3331.3352              3545.4826
 Red. masses --      1.0949                 1.1038                 1.0801
 Frc consts  --      7.0376                 7.2174                 7.9993
 IR Inten    --      5.1728                11.4714               151.6508

 - Thermochemistry -
 -------------------
 Temperature   298.150 Kelvin.  Pressure   1.00000 Atm.
 Atom     1 has atomic number  7 and mass  14.00307

 Molecular mass:   113.02253 amu.
 Principal axes and moments of inertia in atomic units:
                           1         2         3
     Eigenvalues --   345.484681007.671551349.37710
           X            0.99999  -0.00370   0.00047
           Y            0.00370   0.99994   0.01016
           Z           -0.00050  -0.01016   0.99995
 This molecule is an asymmetric top.
 Rotational symmetry number  1.
 Rotational temperatures (Kelvin)      0.25070     0.08595     0.06419
 Rotational constants (GHZ):           5.22380     1.79100     1.33746
 Zero-point vibrational energy     188418.5 (Joules/Mol)
                                   45.03310 (Kcal/Mol)
 Warning -- explicit consideration of   7 degrees of freedom as
           vibrations may cause significant error
 Vibrational temperatures:    110.65   166.98   353.20   526.97   649.55
          (Kelvin)            792.28   832.01   916.19  1004.35  1099.40
                             1130.82  1303.18  1323.87  1349.51  1551.63
                             1613.36  1731.94  1790.95  1851.45  1929.54
                             2006.39  2069.73  2222.39  2350.31  4752.23
                             4793.05  5101.16

 Zero-point correction=                           0.071765 (Hartree/Particle)
 Thermal correction to Energy=                    0.078241
 Thermal correction to Enthalpy=                  0.079185
 Thermal correction to Gibbs Free Energy=         0.039862
 Sum of electronic and zero-point Energies=           -430.699939
 Sum of electronic and thermal Energies=              -430.693463
 Sum of electronic and thermal Enthalpies=            -430.692519
 Sum of electronic and thermal Free Energies=         -430.731841

                     E (Thermal)             CV                S
                      KCal/Mol        Cal/Mol-Kelvin    Cal/Mol-Kelvin
 Total                   49.097             22.874             82.762
 Electronic               0.000              0.000              1.377
 Translational            0.889              2.981             40.083
 Rotational               0.889              2.981             27.643
 Vibrational             47.319             16.912             13.658
 Vibration     1          0.599              1.965              3.968
 Vibration     2          0.608              1.936              3.165
 Vibration     3          0.660              1.770              1.763
 Vibration     4          0.739              1.542              1.095
 Vibration     5          0.810              1.358              0.791
 Vibration     6          0.906              1.138              0.543
 Vibration     7          0.935              1.078              0.489

 Optimization completed.
    -- Stationary point found.
 Normal termination of Gaussian 16 at Sat Jul  1 05:14:06 2023.
