 Gaussian 16, Revision C.01,
 Gaussian 16:  ES64L-G16RevC.01  3-Jul-2019

 ----------------------------------------------------------------------
 # opt=(calcfc,ts,noeigentest) freq 6-31+g(d,p) scrf=(smd,solvent=water
 ) integral=grid=ultrafine m062x
 ----------------------------------------------------------------------

 -------------------
 Title Card Required
 -------------------
 Symbolic Z-matrix:
 Charge =  0 Multiplicity = 1

 SCF Done:  E(RM062X) =  -469.853161632     A.U. after   15 cycles
 SCF Done:  E(RM062X) =  -469.853169693     A.U. after   11 cycles
 SCF Done:  E(RM062X) =  -469.853169821     A.U. after    9 cycles
 SCF Done:  E(RM062X) =  -469.853169817     A.U. after    7 cycles
 Optimization completed.
    -- Stationary point found.
 Normal termination of Gaussian 16 at Sat Dec  2 06:36:29 2023.

 ----------------------------------------------------------------------
 #N Geom=AllCheck Guess=TCheck SCRF=Check GenChk RM062X/6-31+G(d,p) Fre
 q
 ----------------------------------------------------------------------

 Structure from the checkpoint file:  "/home/gau/soft/scratch/Gau-12337.chk"
 -------------------
 Title Card Required
 -------------------
 Charge =  0 Multiplicity = 1

                         Standard orientation:
 ---------------------------------------------------------------------
 Center     Atomic      Atomic             Coordinates (Angstroms)
 Number     Number       Type             X           Y           Z
 ---------------------------------------------------------------------
      1          7           0        0.281869   -0.379558   -0.005683
      2          7           0        0.469929    0.925897   -0.024398
      3          6           0        1.784942    1.088842   -0.016064
      4          6           0        2.363741   -0.194096    0.008846
      5          7           0        1.391629   -1.099155    0.014568
      6          1           0        2.240883    2.067511   -0.027690
      7          1           0        3.403783   -0.482115    0.021943
      8          6           0       -1.534969    2.172030    0.035184
      9          6           0       -1.081162   -0.925372   -0.008585
     10          8           0       -1.953328   -0.027063   -0.030926
     11          8           0       -1.181320   -2.150267    0.011014
     12          1           0       -1.579408    2.098872    1.113456
     13          1           0       -2.426399    1.980890   -0.542626
     14          1           0       -0.760975    2.774785   -0.413488
 ---------------------------------------------------------------------

 SCF Done:  E(RM062X) =  -469.853169817     A.U. after    1 cycles

 The electronic state is 1-A.
 Alpha  occ. eigenvalues --  -19.64861 -19.63611 -14.89127 -14.83443 -14.82318
 Alpha  occ. eigenvalues --  -10.71799 -10.67958 -10.59772 -10.59292  -1.26523
 Alpha  occ. eigenvalues --   -1.20258  -1.12371  -1.02171  -0.94929  -0.82991
 Alpha  occ. eigenvalues --   -0.75501  -0.73308  -0.65686  -0.60370  -0.59715
 Alpha  occ. eigenvalues --   -0.56453  -0.54446  -0.54168  -0.52950  -0.51202
 Alpha  occ. eigenvalues --   -0.51112  -0.42552  -0.40453  -0.38993  -0.37954
 Alpha  occ. eigenvalues --   -0.36779  -0.35738  -0.34294
 Alpha virt. eigenvalues --   -0.07592  -0.00915   0.01839   0.03650   0.03920
 Alpha virt. eigenvalues --    0.04403   0.05946   0.06213   0.06290   0.07524
 Alpha virt. eigenvalues --    0.08547   0.09138   0.09408   0.10102   0.10827

 Mulliken charges:
               1
     1  N   -0.245866
     2  N   -0.029534
     3  C   -0.143162
     4  C   -0.170482
     5  N   -0.204556
     6  H    0.240510
     7  H    0.235100
     8  C   -0.095409
     9  C    0.839034
    10  O   -0.598259
    11  O   -0.643890
    12  H    0.278363
    13  H    0.270063
    14  H    0.268091
 Sum of Mulliken charges =  -0.00000

 Dipole moment (field-independent basis, Debye):
    X=              3.3512    Y=             13.5148    Z=              0.2021  Tot=             13.9255
 Quadrupole moment (field-independent basis, Debye-Ang):
   XX=            -45.8373   YY=            -48.9037   ZZ=            -51.0431
   XY=            -11.7020   XZ=             -0.3335   YZ=              0.3705

  Exact polarizability:     131.142      -0.940     134.856       0.453      -0.988      60.023
 Approx polarizability:     106.983       0.407     113.459       0.412      -0.901      55.273

 ******    1 imaginary frequencies (negative Signs) ******

                      1                      2                      3
                      A                      A                      A
 Frequencies --   -505.6322                56.4511                99.0469
 Red. masses --      2.7707                 4.7262                 3.4441
 Frc consts  --      0.4174                 0.0089                 0.0199
 IR Inten    --    167.7382                17.2644                 1.5632

                      4                      5                      6
                      A                      A                      A
 Frequencies --    123.7286               159.1288               226.0793
 Red. masses --      1.4907                 6.5773                 5.6549
 Frc consts  --      0.0134                 0.0981                 0.1703
 IR Inten    --     10.7552                 0.7194               197.7258

                      7                      8                      9
                      A                      A                      A
 Frequencies --    316.2610               460.0266               559.7888
 Red. masses --      7.1933                 9.7893                 6.4365
 Frc consts  --      0.4239                 1.2206                 1.1884
 IR Inten    --    108.0736                 1.1942                 5.7561

                     10                     11                     12
                      A                      A                      A
 Frequencies --    664.5162               674.3465               722.6522
 Red. masses --      4.7512                 5.2975                 1.4347
 Frc consts  --      1.2361                 1.4193                 0.4414
 IR Inten    --      7.8625                 5.9272                54.1580

                     13                     14                     15
                      A                      A                      A
 Frequencies --    761.3484               780.3514               795.8208
 Red. masses --      1.1366                12.4308                 5.4945
 Frc consts  --      0.3882                 4.4599                 2.0503
 IR Inten    --     16.1762                49.1852               329.9004

                     16                     17                     18
                      A                      A                      A
 Frequencies --    868.6168               933.9581               963.5316
 Red. masses --      1.1841                 1.3982                 7.1546
 Frc consts  --      0.5264                 0.7186                 3.9135
 IR Inten    --     82.8595                 0.0534                42.4233

                     19                     20                     21
                      A                      A                      A
 Frequencies --   1024.7839              1098.4813              1206.1341
 Red. masses --      2.4330                 2.3014                 1.3661
 Frc consts  --      1.5054                 1.6362                 1.1709
 IR Inten    --     40.1341                48.2515                63.0444

                     22                     23                     24
                      A                      A                      A
 Frequencies --   1273.9048              1298.2652              1315.9530
 Red. masses --      1.3231                 6.0612                 6.4124
 Frc consts  --      1.2651                 6.0191                 6.5426
 IR Inten    --    330.9262               606.2563                27.1156

                     25                     26                     27
                      A                      A                      A
 Frequencies --   1385.6900              1407.6960              1412.1269
 Red. masses --      5.7257                 5.0654                 1.1991
 Frc consts  --      6.4775                 5.9140                 1.4088
 IR Inten    --    283.6916                81.5455                 4.1539

                     28                     29                     30
                      A                      A                      A
 Frequencies --   1449.2252              1482.1595              1555.6616
 Red. masses --      1.1006                 4.0222                 5.5371
 Frc consts  --      1.3619                 5.2060                 7.8952
 IR Inten    --     17.4162                 5.2825                16.9859

                     31                     32                     33
                      A                      A                      A
 Frequencies --   1738.9036              3180.8434              3313.1674
 Red. masses --     12.2486                 1.0110                 1.0963
 Frc consts  --     21.8216                 6.0269                 7.0902
 IR Inten    --   1725.1974                 1.2740                 4.9746

                     34                     35                     36
                      A                      A                      A
 Frequencies --   3328.5851              3382.0426              3382.6073
 Red. masses --      1.1052                 1.1211                 1.1219
 Frc consts  --      7.2143                 7.5556                 7.5634
 IR Inten    --      2.3768                16.9847                19.3797

 - Thermochemistry -
 -------------------
 Temperature   298.150 Kelvin.  Pressure   1.00000 Atm.
 Atom     1 has atomic number  7 and mass  14.00307

 Molecular mass:   127.03818 amu.
 Principal axes and moments of inertia in atomic units:
                           1         2         3
     Eigenvalues --   741.963461037.040721766.37451
           X            0.99626  -0.08639  -0.00040
           Y            0.08639   0.99626   0.00029
           Z            0.00037  -0.00032   1.00000
 This molecule is an asymmetric top.
 Rotational symmetry number  1.
 Warning -- assumption of classical behavior for rotation
           may cause significant error
 Rotational temperatures (Kelvin)      0.11674     0.08352     0.04903
 Rotational constants (GHZ):           2.43239     1.74028     1.02172
    1 imaginary frequencies ignored.
 Zero-point vibrational energy     259600.9 (Joules/Mol)
                                   62.04611 (Kcal/Mol)
 Warning -- explicit consideration of   8 degrees of freedom as
           vibrations may cause significant error
 Vibrational temperatures:     81.22   142.51   178.02   228.95   325.28
          (Kelvin)            455.03   661.88   805.41   956.09   970.23
                             1039.74  1095.41  1122.75  1145.01  1249.75
                             1343.76  1386.31  1474.44  1580.47  1735.36
                             1832.86  1867.91  1893.36  1993.70  2025.36
                             2031.74  2085.11  2132.50  2238.25  2501.89
                             4576.52  4766.91  4789.09  4866.01  4866.82

 Zero-point correction=                           0.098877 (Hartree/Particle)
 Thermal correction to Energy=                    0.106853
 Thermal correction to Enthalpy=                  0.107797
 Thermal correction to Gibbs Free Energy=         0.065173
 Sum of electronic and zero-point Energies=           -469.754293
 Sum of electronic and thermal Energies=              -469.746317
 Sum of electronic and thermal Enthalpies=            -469.745372
 Sum of electronic and thermal Free Energies=         -469.787997

                     E (Thermal)             CV                S
                      KCal/Mol        Cal/Mol-Kelvin    Cal/Mol-Kelvin
 Total                   67.051             27.512             89.710
 Electronic               0.000              0.000              0.000
 Translational            0.889              2.981             40.431
 Rotational               0.889              2.981             28.698
 Vibrational             65.274             21.550             20.581
 Vibration     1          0.596              1.975              4.578
 Vibration     2          0.604              1.950              3.473
 Vibration     3          0.610              1.929              3.041
 Vibration     4          0.621              1.892              2.560
 Vibration     5          0.650              1.801              1.910
 Vibration     6          0.703              1.643              1.329
 Vibration     7          0.818              1.339              0.766
 Vibration     8          0.915              1.118              0.524

 Optimization completed.
    -- Stationary point found.
 Normal termination of Gaussian 16 at Sat Dec  2 06:37:13 2023.
