 Gaussian 16, Revision C.01,
 Gaussian 16:  ES64L-G16RevC.01  3-Jul-2019

 ----------------------------------------------------------------------
 # opt=(calcfc,ts,noeigentest) freq 6-31+g(d,p) scrf=(smd,solvent=water
 ) integral=grid=ultrafine m062x
 ----------------------------------------------------------------------

 --
 TS
 --
 Symbolic Z-matrix:
 Charge = -1 Multiplicity = 2

 SCF Done:  E(UM062X) =  -507.163665001     A.U. after   17 cycles
 SCF Done:  E(UM062X) =  -507.167968744     A.U. after   15 cycles
 SCF Done:  E(UM062X) =  -507.170449279     A.U. after   15 cycles
 SCF Done:  E(UM062X) =  -507.170768978     A.U. after   14 cycles
 SCF Done:  E(UM062X) =  -507.170849772     A.U. after   13 cycles
 SCF Done:  E(UM062X) =  -507.170866606     A.U. after   12 cycles
 SCF Done:  E(UM062X) =  -507.170866512     A.U. after   12 cycles
 SCF Done:  E(UM062X) =  -507.170863631     A.U. after   12 cycles
 SCF Done:  E(UM062X) =  -507.170864175     A.U. after   10 cycles
 SCF Done:  E(UM062X) =  -507.170865294     A.U. after   10 cycles
 Optimization completed.
    -- Stationary point found.
 Normal termination of Gaussian 16 at Thu Dec  7 10:14:28 2023.

 ----------------------------------------------------------------------
 #N Geom=AllCheck Guess=TCheck SCRF=Check GenChk UM062X/6-31+G(d,p) Fre
 q
 ----------------------------------------------------------------------

 Structure from the checkpoint file:  "/home/gau/soft/scratch/Gau-59984.chk"
 --
 TS
 --
 Charge = -1 Multiplicity = 2

                         Standard orientation:
 ---------------------------------------------------------------------
 Center     Atomic      Atomic             Coordinates (Angstroms)
 Number     Number       Type             X           Y           Z
 ---------------------------------------------------------------------
      1          7           0       -0.287938   -0.394835   -0.024414
      2          7           0       -0.491050    0.958225   -0.277173
      3          6           0       -1.842987    1.118073   -0.151486
      4          6           0       -2.404698   -0.109984    0.107530
      5          7           0       -1.462999   -1.082250    0.185863
      6          1           0       -2.298857    2.089327   -0.269169
      7          1           0       -3.448526   -0.354201    0.240344
      8          1           0        0.475732    1.702874   -0.003806
      9          6           0        0.942598   -1.006899   -0.051027
     10          8           0        1.991140   -0.235422   -0.243011
     11          8           0        1.033143   -2.241072    0.089883
     12          8           0        1.620521    2.099321    0.189737
     13          1           0        1.898522    0.888782   -0.005026
     14          1           0        1.739126    2.315478    1.124759
 ---------------------------------------------------------------------

 SCF Done:  E(UM062X) =  -507.170865294     A.U. after    1 cycles

 The electronic state is 2-A.
 Alpha  occ. eigenvalues --  -19.64230 -19.62638 -19.61633 -14.85790 -14.79414
 Alpha  occ. eigenvalues --  -14.77668 -10.69772 -10.56996 -10.56479  -1.22484
 Alpha  occ. eigenvalues --   -1.16535  -1.12018  -1.08867  -0.97965  -0.93687
 Alpha  occ. eigenvalues --   -0.75878  -0.69387  -0.66385  -0.65955  -0.57530
 Alpha  occ. eigenvalues --   -0.56341  -0.54689  -0.52827  -0.50334  -0.48902
 Alpha  occ. eigenvalues --   -0.47835  -0.45345  -0.39605  -0.38612  -0.37917
 Alpha  occ. eigenvalues --   -0.36833  -0.36233  -0.34799  -0.34090  -0.16649
 Alpha virt. eigenvalues --    0.02377   0.04079   0.04549   0.05267   0.06662
 Alpha virt. eigenvalues --    0.06880   0.07026   0.09114   0.09826   0.09931
 Alpha virt. eigenvalues --    0.10995   0.11911   0.12302   0.14918   0.15821

  Beta  occ. eigenvalues --  -19.64174 -19.62627 -19.61488 -14.85651 -14.78960
  Beta  occ. eigenvalues --  -14.77143 -10.69708 -10.56888 -10.56515  -1.21878
  Beta  occ. eigenvalues --   -1.15823  -1.11782  -1.08679  -0.96413  -0.92865
  Beta  occ. eigenvalues --   -0.74949  -0.68881  -0.66191  -0.65048  -0.56260
  Beta  occ. eigenvalues --   -0.55349  -0.54315  -0.52522  -0.49788  -0.48120
  Beta  occ. eigenvalues --   -0.46970  -0.45016  -0.38629  -0.38212  -0.36469
  Beta  occ. eigenvalues --   -0.35891  -0.34359  -0.32177  -0.31776
  Beta virt. eigenvalues --   -0.00758   0.02176   0.04136   0.04388   0.05005
  Beta virt. eigenvalues --    0.06623   0.06852   0.07921   0.08775   0.08909
  Beta virt. eigenvalues --    0.11121   0.11332   0.12024   0.12838   0.14819

 Mulliken charges and spin densities:
               1          2
     1  N   -0.082109   0.015196
     2  N   -0.423973   0.261041
     3  C   -0.164516   0.193471
     4  C   -0.187052  -0.042264
     5  N   -0.396756   0.387252
     6  H    0.218070  -0.008303
     7  H    0.206440  -0.000125
     8  H    0.500906  -0.001968
     9  C    0.787189   0.099969
    10  O   -0.711077   0.020842
    11  O   -0.713870   0.067970
    12  O   -1.021733   0.007795
    13  H    0.536090   0.000026
    14  H    0.452391  -0.000901
 Sum of Mulliken charges =  -1.00000   1.00000

 Dipole moment (field-independent basis, Debye):
    X=             -5.1130    Y=              8.1518    Z=              2.0447  Tot=              9.8375
 Quadrupole moment (field-independent basis, Debye-Ang):
   XX=            -64.2871   YY=            -76.4770   ZZ=            -54.8067
   XY=              0.0993   XZ=              4.5693   YZ=              5.7851

  Exact polarizability:     146.736     -11.566     139.799      -2.953      -5.925      69.666
 Approx polarizability:     109.267      -3.823     113.007      -2.622      -5.315      61.791

 ******    1 imaginary frequencies (negative Signs) ******

                      1                      2                      3
                      A                      A                      A
 Frequencies --  -1300.7917                63.6791               129.9713
 Red. masses --      1.0643                 6.7238                 6.2634
 Frc consts  --      1.0610                 0.0161                 0.0623
 IR Inten    --   1642.3696                10.4222                 2.0450

                      4                      5                      6
                      A                      A                      A
 Frequencies --    144.2328               264.2089               392.3765
 Red. masses --      8.5280                 7.2248                 5.3482
 Frc consts  --      0.1045                 0.2971                 0.4851
 IR Inten    --      5.1882               103.5870               605.1718

                      7                      8                      9
                      A                      A                      A
 Frequencies --    424.4051               469.3825               511.5779
 Red. masses --     10.2521                 8.8642                 2.9831
 Frc consts  --      1.0880                 1.1506                 0.4600
 IR Inten    --    142.5388               129.4696              2838.5065

                     10                     11                     12
                      A                      A                      A
 Frequencies --    545.5540               565.3399               575.1446
 Red. masses --      1.2676                 1.2935                 3.5726
 Frc consts  --      0.2223                 0.2436                 0.6963
 IR Inten    --     49.9933               143.5682               100.6680

                     13                     14                     15
                      A                      A                      A
 Frequencies --    604.8854               701.7315               729.9807
 Red. masses --      3.9303                 7.6223                 3.0907
 Frc consts  --      0.8473                 2.2115                 0.9704
 IR Inten    --     24.8288               412.8093              2120.6261

                     16                     17                     18
                      A                      A                      A
 Frequencies --    741.9141               879.4571               881.2029
 Red. masses --      1.2243                 2.0396                 2.1807
 Frc consts  --      0.3970                 0.9295                 0.9977
 IR Inten    --     96.1681               140.3436               142.6538

                     19                     20                     21
                      A                      A                      A
 Frequencies --    950.1229              1038.6215              1116.8766
 Red. masses --      6.3090                 2.1623                 1.4392
 Frc consts  --      3.3556                 1.3743                 1.0577
 IR Inten    --    275.4701              3061.9516                18.5279

                     22                     23                     24
                      A                      A                      A
 Frequencies --   1148.9331              1188.4984              1246.5645
 Red. masses --      1.9272                 6.6506                 9.0626
 Frc consts  --      1.4989                 5.5349                 8.2972
 IR Inten    --    777.2271               516.0300                28.3845

                     25                     26                     27
                      A                      A                      A
 Frequencies --   1292.5441              1343.5561              1394.5921
 Red. masses --      4.0705                 1.1331                 1.2122
 Frc consts  --      4.0068                 1.2051                 1.3891
 IR Inten    --    220.5268                13.7082               506.7381

                     28                     29                     30
                      A                      A                      A
 Frequencies --   1427.1911              1465.0290              1492.3797
 Red. masses --      2.1010                 1.8412                 2.4935
 Frc consts  --      2.5214                 2.3283                 3.2721
 IR Inten    --     51.0851                74.0600              1317.4659

                     31                     32                     33
                      A                      A                      A
 Frequencies --   1554.1499              1632.0386              1804.8268
 Red. masses --      3.9215                 8.4542                 1.0563
 Frc consts  --      5.5807                13.2673                 2.0273
 IR Inten    --    233.4719               818.7353               251.5753

                     34                     35                     36
                      A                      A                      A
 Frequencies --   3300.0451              3320.9436              3873.5972
 Red. masses --      1.0916                 1.1055                 1.0660
 Frc consts  --      7.0042                 7.1837                 9.4236
 IR Inten    --      5.5481                 2.1447               121.7804

 - Thermochemistry -
 -------------------
 Temperature   298.150 Kelvin.  Pressure   1.00000 Atm.
 Atom     1 has atomic number  7 and mass  14.00307

 Molecular mass:   131.03309 amu.
 Principal axes and moments of inertia in atomic units:
                           1         2         3
     Eigenvalues --   816.811091096.877961877.74960
           X            0.99933   0.03602   0.00584
           Y           -0.03608   0.99931   0.00916
           Z           -0.00550  -0.00937   0.99994
 This molecule is an asymmetric top.
 Rotational symmetry number  1.
 Warning -- assumption of classical behavior for rotation
           may cause significant error
 Rotational temperatures (Kelvin)      0.10604     0.07896     0.04613
 Rotational constants (GHZ):           2.20950     1.64534     0.96112
    1 imaginary frequencies ignored.
 Zero-point vibrational energy     234561.1 (Joules/Mol)
                                   56.06145 (Kcal/Mol)
 Warning -- explicit consideration of  12 degrees of freedom as
           vibrations may cause significant error
 Vibrational temperatures:     91.62   187.00   207.52   380.14   564.54
          (Kelvin)            610.62   675.34   736.05   784.93   813.40
                              827.50   870.30  1009.64  1050.28  1067.45
                             1265.34  1267.85  1367.01  1494.34  1606.94
                             1653.06  1709.98  1793.53  1859.68  1933.08
                             2006.51  2053.41  2107.85  2147.20  2236.08
                             2348.14  2596.74  4748.03  4778.10  5573.24

 Zero-point correction=                           0.089340 (Hartree/Particle)
 Thermal correction to Energy=                    0.097181
 Thermal correction to Enthalpy=                  0.098125
 Thermal correction to Gibbs Free Energy=         0.055663
 Sum of electronic and zero-point Energies=           -507.081526
 Sum of electronic and thermal Energies=              -507.073685
 Sum of electronic and thermal Enthalpies=            -507.072741
 Sum of electronic and thermal Free Energies=         -507.115202

                     E (Thermal)             CV                S
                      KCal/Mol        Cal/Mol-Kelvin    Cal/Mol-Kelvin
 Total                   60.982             29.164             89.368
 Electronic               0.000              0.000              1.377
 Translational            0.889              2.981             40.524
 Rotational               0.889              2.981             28.910
 Vibrational             59.204             23.202             18.557
 Vibration     1          0.597              1.972              4.340
 Vibration     2          0.612              1.923              2.946
 Vibration     3          0.616              1.909              2.747
 Vibration     4          0.671              1.739              1.634
 Vibration     5          0.760              1.486              0.991
 Vibration     6          0.786              1.417              0.877
 Vibration     7          0.826              1.318              0.739
 Vibration     8          0.867              1.224              0.630
 Vibration     9          0.901              1.149              0.553
 Vibration    10          0.921              1.106              0.513
 Vibration    11          0.932              1.085              0.494
 Vibration    12          0.963              1.021              0.441

                           ! Non-Optimized Parameters !
 Normal termination of Gaussian 16 at Thu Dec  7 10:15:45 2023.
