 Gaussian 16, Revision A.03,
 Gaussian 16:  ES64L-G16RevA.03 25-Dec-2016

 -----------------------------------------------------
 # opt freq 6-31+g(d,p) scrf=(smd,solvent=water) m062x
 -----------------------------------------------------

 ----------
 2-H-1-H-Tz
 ----------
 Symbolic Z-matrix:
 Charge =  1 Multiplicity = 1

 SCF Done:  E(RM062X) =  -431.063617209     A.U. after   14 cycles
 SCF Done:  E(RM062X) =  -431.092368965     A.U. after   15 cycles
 SCF Done:  E(RM062X) =  -431.096501193     A.U. after   12 cycles
 SCF Done:  E(RM062X) =  -431.096907576     A.U. after   14 cycles
 SCF Done:  E(RM062X) =  -431.097254237     A.U. after   14 cycles
 SCF Done:  E(RM062X) =  -431.096960576     A.U. after   15 cycles
 SCF Done:  E(RM062X) =  -431.097505722     A.U. after   12 cycles
 SCF Done:  E(RM062X) =  -431.097559537     A.U. after   11 cycles
 SCF Done:  E(RM062X) =  -431.097669212     A.U. after   11 cycles
 SCF Done:  E(RM062X) =  -431.095872774     A.U. after   15 cycles
 SCF Done:  E(RM062X) =  -431.098485923     A.U. after   11 cycles
 SCF Done:  E(RM062X) =  -431.098503705     A.U. after   11 cycles
 SCF Done:  E(RM062X) =  -431.098507493     A.U. after   10 cycles
 SCF Done:  E(RM062X) =  -431.098509568     A.U. after   10 cycles
 SCF Done:  E(RM062X) =  -431.098511582     A.U. after    9 cycles
 SCF Done:  E(RM062X) =  -431.098512871     A.U. after    9 cycles
 SCF Done:  E(RM062X) =  -431.098513592     A.U. after    8 cycles
 SCF Done:  E(RM062X) =  -431.098513849     A.U. after    8 cycles
 SCF Done:  E(RM062X) =  -431.098513671     A.U. after    8 cycles
 Optimization completed.
    -- Stationary point found.
 Normal termination of Gaussian 16 at Sat May 13 18:24:34 2023.

 ----------------------------------------------------------------------
 #N Geom=AllCheck Guess=TCheck SCRF=Check GenChk RM062X/6-31+G(d,p) Fre
 q
 ----------------------------------------------------------------------

 Structure from the checkpoint file:  "/scratch/gongke2021/2-H-1-H-Tz-2/Gau-23124.chk"
 ----------
 2-H-1-H-Tz
 ----------
 Charge =  1 Multiplicity = 1

                         Standard orientation:
 ---------------------------------------------------------------------
 Center     Atomic      Atomic             Coordinates (Angstroms)
 Number     Number       Type             X           Y           Z
 ---------------------------------------------------------------------
      1          7           0        0.790656   -0.769328   -0.068484
      2          7           0        2.109426   -0.822224   -0.021909
      3          6           0        2.573922    0.423022    0.045655
      4          6           0        1.438385    1.228747    0.035770
      5          7           0        0.351489    0.449451   -0.035734
      6          1           0        3.629649    0.641632    0.094159
      7          1           0        1.362911    2.303420    0.075873
      8          1           0        2.605424   -1.716361   -0.036858
      9          1           0        0.198308   -1.600449   -0.120857
     10          6           0       -2.476995   -0.066999    0.017107
     11          8           0       -2.125591   -1.175277    0.086938
     12          8           0       -2.845555    1.032507   -0.052016
 ---------------------------------------------------------------------

 SCF Done:  E(RM062X) =  -431.098513671     A.U. after    1 cycles

 The electronic state is 1-A.
 Alpha  occ. eigenvalues --  -19.73431 -19.73398 -14.94112 -14.92364 -14.86477
 Alpha  occ. eigenvalues --  -10.75761 -10.64653 -10.62111  -1.31248  -1.29548
 Alpha  occ. eigenvalues --   -1.24599  -1.09032  -0.99241  -0.79170  -0.78030
 Alpha  occ. eigenvalues --   -0.75644  -0.66464  -0.62712  -0.61611  -0.61069
 Alpha  occ. eigenvalues --   -0.60394  -0.60272  -0.56967  -0.54690  -0.44923
 Alpha  occ. eigenvalues --   -0.44805  -0.43715  -0.43167  -0.37997
 Alpha virt. eigenvalues --   -0.03270   0.00647   0.02519   0.03710   0.04155
 Alpha virt. eigenvalues --    0.04664   0.04930   0.05680   0.06984   0.07593
 Alpha virt. eigenvalues --    0.07944   0.08281   0.08693   0.09767   0.11538

 Mulliken charges:
               1
     1  N    0.000035
     2  N   -0.267279
     3  C   -0.012367
     4  C   -0.204631
     5  N   -0.041738
     6  H    0.296256
     7  H    0.262764
     8  H    0.464185
     9  H    0.468401
    10  C    0.812201
    11  O   -0.389154
    12  O   -0.388672
 Sum of Mulliken charges =   1.00000

 Dipole moment (field-independent basis, Debye):
    X=             10.5107    Y=             -3.8987    Z=             -0.0879  Tot=             11.2108
 Quadrupole moment (field-independent basis, Debye-Ang):
   XX=            -15.0227   YY=            -31.6838   ZZ=            -43.8226
   XY=             -1.9680   XZ=              0.1745   YZ=              1.1225

  Exact polarizability:  74.925  -4.388  90.069   1.579  -0.014  40.777
 Approx polarizability:  72.105  -5.342  91.341   1.629  -0.167  39.287

                      1                      2                      3
                      A                      A                      A
 Frequencies --     36.1758                42.2169                68.4256
 Red. masses --      6.2409                 5.5053                 7.4587
 Frc consts  --      0.0048                 0.0058                 0.0206
 IR Inten    --      6.8537                 5.3332                 2.0965

                      4                      5                      6
                      A                      A                      A
 Frequencies --    104.5713               130.1158               569.6444
 Red. masses --      7.7798                 9.7059                 1.5337
 Frc consts  --      0.0501                 0.0968                 0.2932
 IR Inten    --     11.8929                 0.6518                88.3001

                      7                      8                      9
                      A                      A                      A
 Frequencies --    645.9247               653.3125               661.8167
 Red. masses --      3.0935                12.8839                12.8439
 Frc consts  --      0.7604                 3.2400                 3.3145
 IR Inten    --     40.9070                86.7839                53.5721

                     10                     11                     12
                      A                      A                      A
 Frequencies --    684.3514               700.9655               860.6679
 Red. masses --      1.1499                 3.1172                 1.1819
 Frc consts  --      0.3173                 0.9024                 0.5158
 IR Inten    --    230.6110                24.2363                65.4832

                     13                     14                     15
                      A                      A                      A
 Frequencies --    942.1366               955.3981               992.5457
 Red. masses --      1.3978                 5.6936                 3.3383
 Frc consts  --      0.7310                 3.0620                 1.9376
 IR Inten    --      0.2006                31.5722                 4.8256

                     16                     17                     18
                      A                      A                      A
 Frequencies --   1100.1704              1127.8867              1189.3782
 Red. masses --      1.5192                 1.3613                 1.7452
 Frc consts  --      1.0834                 1.0203                 1.4546
 IR Inten    --     26.6695               152.9066                58.8667

                     19                     20                     21
                      A                      A                      A
 Frequencies --   1266.4925              1310.2755              1405.4758
 Red. masses --      4.6190                 1.5343                15.9814
 Frc consts  --      4.3652                 1.5520                18.5999
 IR Inten    --      7.5504                64.0509                 0.4468

                     22                     23                     24
                      A                      A                      A
 Frequencies --   1416.4678              1514.0476              1531.5527
 Red. masses --      2.8669                 5.0366                 2.9739
 Frc consts  --      3.3891                 6.8024                 4.1100
 IR Inten    --      9.2381                 0.7734                45.3905

                     25                     26                     27
                      A                      A                      A
 Frequencies --   1610.6155              2381.3473              3333.3857
 Red. masses --      2.7871                12.8372                 1.0995
 Frc consts  --      4.2598                42.8911                 7.1984
 IR Inten    --     27.7194              1524.7492                44.2432

                     28                     29                     30
                      A                      A                      A
 Frequencies --   3346.3337              3533.0484              3544.7033
 Red. masses --      1.1090                 1.0893                 1.0897
 Frc consts  --      7.3166                 8.0109                 8.0667
 IR Inten    --     45.1966               401.9350               790.5036

 - Thermochemistry -
 -------------------
 Temperature   298.150 Kelvin.  Pressure   1.00000 Atm.
 Atom     1 has atomic number  7 and mass  14.00307

 Molecular mass:   114.03035 amu.
 Principal axes and moments of inertia in atomic units:
                           1         2         3
     Eigenvalues --   327.419771693.993662019.08282
           X            1.00000   0.00170   0.00069
           Y           -0.00171   0.99998   0.00535
           Z           -0.00068  -0.00536   0.99999
 This molecule is an asymmetric top.
 Rotational symmetry number  1.
 Rotational temperatures (Kelvin)      0.26453     0.05113     0.04290
 Rotational constants (GHZ):           5.51201     1.06538     0.89384
 Zero-point vibrational energy     225253.5 (Joules/Mol)
                                   53.83689 (Kcal/Mol)
 Warning -- explicit consideration of   6 degrees of freedom as
           vibrations may cause significant error
 Vibrational temperatures:     52.05    60.74    98.45   150.45   187.21
          (Kelvin)            819.59   929.34   939.97   952.21   984.63
                             1008.53  1238.31  1355.52  1374.60  1428.05
                             1582.90  1622.78  1711.25  1822.20  1885.19
                             2022.17  2037.98  2178.38  2203.56  2317.32
                             3426.23  4796.00  4814.63  5083.27  5100.04

 Zero-point correction=                           0.085795 (Hartree/Particle)
 Thermal correction to Energy=                    0.093656
 Thermal correction to Enthalpy=                  0.094600
 Thermal correction to Gibbs Free Energy=         0.050536
 Sum of electronic and zero-point Energies=           -431.012719
 Sum of electronic and thermal Energies=              -431.004858
 Sum of electronic and thermal Enthalpies=            -431.003914
 Sum of electronic and thermal Free Energies=         -431.047978

                     E (Thermal)             CV                S
                      KCal/Mol        Cal/Mol-Kelvin    Cal/Mol-Kelvin
 Total                   58.770             24.575             92.740
 Electronic               0.000              0.000              0.000
 Translational            0.889              2.981             40.109
 Rotational               0.889              2.981             28.506
 Vibrational             56.993             18.614             24.125
 Vibration     1          0.594              1.982              5.458
 Vibration     2          0.595              1.980              5.152
 Vibration     3          0.598              1.969              4.198
 Vibration     4          0.605              1.946              3.367
 Vibration     5          0.612              1.923              2.944
 Vibration     6          0.926              1.097              0.505

 Optimization completed.
    -- Stationary point found.
 Normal termination of Gaussian 16 at Sat May 13 18:25:15 2023.
