 Gaussian 16, Revision A.03,
 Gaussian 16:  ES64L-G16RevA.03 25-Dec-2016

 -----------------------------------------------------
 # opt freq 6-31+g(d,p) m062x scrf=(SMD,solvent=water)
 -----------------------------------------------------

 ----
 test
 ----
 Symbolic Z-matrix:
 Charge =  0 Multiplicity = 1

 SCF Done:  E(RM062X) =  -242.039412378     A.U. after   13 cycles
 SCF Done:  E(RM062X) =  -242.108873159     A.U. after   13 cycles
 SCF Done:  E(RM062X) =  -242.155469864     A.U. after   13 cycles
 SCF Done:  E(RM062X) =  -242.156931669     A.U. after   11 cycles
 SCF Done:  E(RM062X) =  -242.157353799     A.U. after   11 cycles
 SCF Done:  E(RM062X) =  -242.155641134     A.U. after   11 cycles
 SCF Done:  E(RM062X) =  -242.157335980     A.U. after   11 cycles
 SCF Done:  E(RM062X) =  -242.157397700     A.U. after    6 cycles
 SCF Done:  E(RM062X) =  -242.156291173     A.U. after   11 cycles
 SCF Done:  E(RM062X) =  -242.157347266     A.U. after   11 cycles
 SCF Done:  E(RM062X) =  -242.157407243     A.U. after    5 cycles
 SCF Done:  E(RM062X) =  -242.157417997     A.U. after   10 cycles
 Optimization completed.
    -- Stationary point found.
 Normal termination of Gaussian 16 at Sat Jul  1 02:38:54 2023.

 ----------------------------------------------------------------------
 #N Geom=AllCheck Guess=TCheck SCRF=Check GenChk RM062X/6-31+G(d,p) Fre
 q
 ----------------------------------------------------------------------

 Structure from the checkpoint file:  "/scratch/gongke2021/1-H-Tz-opt/Gau-26007.chk"
 ----
 test
 ----
 Charge =  0 Multiplicity = 1

                         Standard orientation:
 ---------------------------------------------------------------------
 Center     Atomic      Atomic             Coordinates (Angstroms)
 Number     Number       Type             X           Y           Z
 ---------------------------------------------------------------------
      1          7           0        0.489231   -1.063901    0.000027
      2          7           0        1.054086    0.140671   -0.000011
      3          6           0        0.133194    1.124201    0.000136
      4          6           0       -1.063915    0.448590   -0.000015
      5          7           0       -0.801130   -0.886295   -0.000022
      6          1           0        0.395478    2.170197   -0.000291
      7          1           0       -2.071441    0.833137   -0.000139
      8          1           0        2.064981    0.226596   -0.000246
 ---------------------------------------------------------------------

 SCF Done:  E(RM062X) =  -242.157417997     A.U. after    1 cycles

 The electronic state is 1-A.
 Alpha  occ. eigenvalues --  -14.85708 -14.83390 -14.79709 -10.59646 -10.57499
 Alpha  occ. eigenvalues --   -1.22819  -1.01387  -0.91068  -0.73007  -0.71098
 Alpha  occ. eigenvalues --   -0.64263  -0.55492  -0.52479  -0.51211  -0.41862
 Alpha  occ. eigenvalues --   -0.37159  -0.35756  -0.32458
 Alpha virt. eigenvalues --    0.02669   0.02978   0.04196   0.05456   0.06537
 Alpha virt. eigenvalues --    0.07576   0.07641   0.09278   0.09835   0.12533
 Alpha virt. eigenvalues --    0.14304   0.14442   0.15561   0.17467   0.20728

 Mulliken charges:
               1
     1  N   -0.082355
     2  N   -0.235392
     3  C   -0.102270
     4  C   -0.196932
     5  N   -0.274618
     6  H    0.252603
     7  H    0.220091
     8  H    0.418873
 Sum of Mulliken charges =  -0.00000

 Dipole moment (field-independent basis, Debye):
    X=              2.9414    Y=              5.7176    Z=             -0.0010  Tot=              6.4298
 Quadrupole moment (field-independent basis, Debye-Ang):
   XX=            -22.2274   YY=            -30.9896   ZZ=            -30.9403
   XY=             -0.2707   XZ=             -0.0010   YZ=             -0.0013

  Exact polarizability:  64.682   0.132  66.043   0.001   0.002  35.319
 Approx polarizability:  61.795   0.289  62.416   0.001   0.003  33.058

                      1                      2                      3
                      A                      A                      A
 Frequencies --    641.3767               673.0484               740.3681
 Red. masses --      2.5870                 1.5349                 4.4068
 Frc consts  --      0.6270                 0.4097                 1.4232
 IR Inten    --     64.6274               115.6497                15.1775

                      4                      5                      6
                      A                      A                      A
 Frequencies --    816.0198               907.6025               964.2588
 Red. masses --      1.2044                 1.3726                 6.3260
 Frc consts  --      0.4725                 0.6662                 3.4655
 IR Inten    --     78.6874                 2.6505                 4.5244

                      7                      8                      9
                      A                      A                      A
 Frequencies --    990.0624              1099.2014              1127.6347
 Red. masses --      2.8020                 1.9744                 1.3476
 Frc consts  --      1.6183                 1.4055                 1.0096
 IR Inten    --      1.4962                44.2325                83.4135

                     10                     11                     12
                      A                      A                      A
 Frequencies --   1172.4667              1224.5941              1342.1661
 Red. masses --      2.2209                 5.4107                 8.9669
 Frc consts  --      1.7988                 4.7807                 9.5171
 IR Inten    --     28.3269                 6.1200                41.8249

                     13                     14                     15
                      A                      A                      A
 Frequencies --   1412.3148              1499.3575              1582.8479
 Red. masses --      2.1668                 3.9502                 3.1762
 Frc consts  --      2.5464                 5.2321                 4.6886
 IR Inten    --      3.9331                 0.9357                17.9284

                     16                     17                     18
                      A                      A                      A
 Frequencies --   3324.5430              3344.1010              3630.9534
 Red. masses --      1.0953                 1.1097                 1.0861
 Frc consts  --      7.1328                 7.3114                 8.4367
 IR Inten    --      7.1701                12.4330               312.3912

 - Thermochemistry -
 -------------------
 Temperature   298.150 Kelvin.  Pressure   1.00000 Atm.
 Atom     1 has atomic number  7 and mass  14.00307

 Molecular mass:    69.03270 amu.
 Principal axes and moments of inertia in atomic units:
                           1         2         3
     Eigenvalues --   177.94908 181.03937 358.98845
           X            0.86011  -0.51011  -0.00001
           Y            0.51011   0.86011  -0.00002
           Z            0.00001   0.00001   1.00000
 This molecule is an asymmetric top.
 Rotational symmetry number  1.
 Rotational temperatures (Kelvin)      0.48673     0.47843     0.24127
 Rotational constants (GHZ):          10.14190     9.96878     5.02730
 Zero-point vibrational energy     158462.8 (Joules/Mol)
                                   37.87353 (Kcal/Mol)
 Vibrational temperatures:    922.80   968.37  1065.22  1174.07  1305.84
          (Kelvin)           1387.35  1424.48  1581.51  1622.41  1686.92
                             1761.92  1931.08  2032.01  2157.24  2277.37
                             4783.28  4811.42  5224.13

 Zero-point correction=                           0.060355 (Hartree/Particle)
 Thermal correction to Energy=                    0.063861
 Thermal correction to Enthalpy=                  0.064805
 Thermal correction to Gibbs Free Energy=         0.034226
 Sum of electronic and zero-point Energies=           -242.097063
 Sum of electronic and thermal Energies=              -242.093557
 Sum of electronic and thermal Enthalpies=            -242.092613
 Sum of electronic and thermal Free Energies=         -242.123192

                     E (Thermal)             CV                S
                      KCal/Mol        Cal/Mol-Kelvin    Cal/Mol-Kelvin
 Total                   40.073             11.775             64.358
 Electronic               0.000              0.000              0.000
 Translational            0.889              2.981             38.613
 Rotational               0.889              2.981             23.962
 Vibrational             38.296              5.814              1.783

 Optimization completed.
    -- Stationary point found.
 Normal termination of Gaussian 16 at Sat Jul  1 02:39:25 2023.
