 Gaussian 16, Revision A.03,
 Gaussian 16:  ES64L-G16RevA.03 25-Dec-2016

 ----------------------------------------------------------------------
 # opt=(calcfc,ts,noeigentest) freq 6-31+g(d,p) integral=grid=ultrafine
  m062x scrf=(SMD,solvent=water)
 ----------------------------------------------------------------------

 --
 RC
 --
 Symbolic Z-matrix:
 Charge = -1 Multiplicity = 2

 SCF Done:  E(UM062X) =  -430.712385127     A.U. after   18 cycles
 SCF Done:  E(UM062X) =  -430.728559665     A.U. after   17 cycles
 SCF Done:  E(UM062X) =  -430.740354018     A.U. after   17 cycles
 SCF Done:  E(UM062X) =  -430.743036226     A.U. after   17 cycles
 SCF Done:  E(UM062X) =  -430.743403084     A.U. after   14 cycles
 SCF Done:  E(UM062X) =  -430.740182858     A.U. after   16 cycles
 SCF Done:  E(UM062X) =  -430.742113230     A.U. after   16 cycles
 SCF Done:  E(UM062X) =  -430.739247725     A.U. after   16 cycles
 SCF Done:  E(UM062X) =  -430.742696703     A.U. after   15 cycles
 SCF Done:  E(UM062X) =  -430.742427176     A.U. after   16 cycles
 SCF Done:  E(UM062X) =  -430.743583470     A.U. after   15 cycles
 SCF Done:  E(UM062X) =  -430.743612903     A.U. after   13 cycles
 SCF Done:  E(UM062X) =  -430.743618490     A.U. after   12 cycles
 SCF Done:  E(UM062X) =  -430.743618959     A.U. after   11 cycles
 Optimization completed.
    -- Stationary point found.
 Normal termination of Gaussian 16 at Sat Jul  1 04:48:38 2023.

 ----------------------------------------------------------------------
 #N Geom=AllCheck Guess=TCheck SCRF=Check GenChk UM062X/6-31+G(d,p) Fre
 q
 ----------------------------------------------------------------------

 Structure from the checkpoint file:  "/scratch/gongke2021/TS/Gau-17128.chk"
 --
 RC
 --
 Charge = -1 Multiplicity = 2

                         Standard orientation:
 ---------------------------------------------------------------------
 Center     Atomic      Atomic             Coordinates (Angstroms)
 Number     Number       Type             X           Y           Z
 ---------------------------------------------------------------------
      1          7           0        0.015830   -0.187379    0.402634
      2          7           0       -0.632344    1.053173    0.286779
      3          6           0       -1.888557    0.713029   -0.141863
      4          6           0       -1.973885   -0.663429   -0.214226
      5          7           0       -0.799717   -1.264091    0.099799
      6          1           0       -2.645677    1.461605   -0.319539
      7          1           0       -2.835638   -1.261156   -0.476968
      8          1           0        0.480342    1.583932   -0.096059
      9          6           0        1.352354   -0.074099   -0.001063
     10          8           0        1.638295    1.187185   -0.197740
     11          8           0        2.108594   -1.043348   -0.113385
 ---------------------------------------------------------------------

 SCF Done:  E(UM062X) =  -430.743618959     A.U. after    1 cycles

 The electronic state is 2-A.
 Alpha  occ. eigenvalues --  -19.64750 -19.62670 -14.84128 -14.78519 -14.77556
 Alpha  occ. eigenvalues --  -10.69853 -10.56842 -10.56537  -1.23329  -1.15650
 Alpha  occ. eigenvalues --   -1.11875  -0.97279  -0.92387  -0.74650  -0.69330
 Alpha  occ. eigenvalues --   -0.63581  -0.62256  -0.57464  -0.53860  -0.52294
 Alpha  occ. eigenvalues --   -0.50183  -0.47619  -0.47299  -0.39595  -0.38406
 Alpha  occ. eigenvalues --   -0.37387  -0.36466  -0.35162  -0.33745  -0.17283
 Alpha virt. eigenvalues --    0.02398   0.04132   0.04534   0.05138   0.06623
 Alpha virt. eigenvalues --    0.06783   0.07063   0.08686   0.09140   0.09606
 Alpha virt. eigenvalues --    0.10564   0.12818   0.13371   0.15891   0.16676

  Beta  occ. eigenvalues --  -19.64725 -19.62580 -14.83929 -14.78051 -14.77001
  Beta  occ. eigenvalues --  -10.69777 -10.56719 -10.56575  -1.22816  -1.14886
  Beta  occ. eigenvalues --   -1.11607  -0.95675  -0.91549  -0.73614  -0.68772
  Beta  occ. eigenvalues --   -0.62920  -0.61465  -0.55855  -0.53564  -0.51844
  Beta  occ. eigenvalues --   -0.49743  -0.46798  -0.45978  -0.38388  -0.37457
  Beta  occ. eigenvalues --   -0.36639  -0.34857  -0.31658  -0.31358
  Beta virt. eigenvalues --   -0.00773   0.02294   0.04205   0.04388   0.04976
  Beta virt. eigenvalues --    0.06807   0.06861   0.08023   0.08381   0.09035
  Beta virt. eigenvalues --    0.10310   0.10947   0.12373   0.13271   0.15551

 Mulliken charges and spin densities:
               1          2
     1  N   -0.070227   0.062406
     2  N   -0.425592   0.260502
     3  C   -0.186139   0.217739
     4  C   -0.150382  -0.052390
     5  N   -0.371516   0.391660
     6  H    0.211869  -0.009301
     7  H    0.203299   0.000177
     8  H    0.453282   0.012582
     9  C    0.743789   0.066316
    10  O   -0.685066   0.008993
    11  O   -0.723317   0.041315
 Sum of Mulliken charges =  -1.00000   1.00000

 Dipole moment (field-independent basis, Debye):
    X=             -7.3938    Y=              3.4547    Z=             -0.7319  Tot=              8.1938
 Quadrupole moment (field-independent basis, Debye-Ang):
   XX=            -60.6019   YY=            -58.4058   ZZ=            -50.3662
   XY=              1.3495   XZ=              3.8807   YZ=             -0.3408

  Exact polarizability: 134.364  -4.358 111.636   2.809   1.359  61.777
 Approx polarizability: 101.732  -4.183  98.779   2.294   0.976  55.956

 ******    1 imaginary frequencies (negative Signs) ******

                      1                      2                      3
                      A                      A                      A
 Frequencies --  -1472.6475               114.1223               165.1752
 Red. masses --      1.0797                 6.8107                 9.6342
 Frc consts  --      1.3796                 0.0523                 0.1549
 IR Inten    --   2879.3520                32.6813                 0.7314

                      4                      5                      6
                      A                      A                      A
 Frequencies --    320.8272               485.9140               565.4300
 Red. masses --      8.1379                11.3352                 5.5668
 Frc consts  --      0.4935                 1.5769                 1.0486
 IR Inten    --      2.5541                17.0671                22.0916

                      7                      8                      9
                      A                      A                      A
 Frequencies --    617.1073               662.0577               746.1690
 Red. masses --      5.4546                10.5872                 1.3424
 Frc consts  --      1.2239                 2.7341                 0.4404
 IR Inten    --     13.5179                22.5831               154.1686

                     10                     11                     12
                      A                      A                      A
 Frequencies --    756.2613               791.6830               890.8030
 Red. masses --      8.3263                 8.7331                 1.5492
 Frc consts  --      2.8057                 3.2249                 0.7243
 IR Inten    --     20.0922               141.9317                 3.3355

                     13                     14                     15
                      A                      A                      A
 Frequencies --    894.2720               947.7731              1111.9567
 Red. masses --      3.4473                 6.7595                 1.3178
 Frc consts  --      1.6243                 3.5775                 0.9600
 IR Inten    --     26.9024                38.5702                35.3080

                     16                     17                     18
                      A                      A                      A
 Frequencies --   1120.6505              1149.7229              1197.5559
 Red. masses --      2.0054                 1.2194                 8.7304
 Frc consts  --      1.4839                 0.9497                 7.3769
 IR Inten    --    249.9037               118.6083               234.5589

                     19                     20                     21
                      A                      A                      A
 Frequencies --   1228.3289              1290.4659              1354.3709
 Red. masses --      6.6847                 6.2929                 8.7430
 Frc consts  --      5.9424                 6.1744                 9.4490
 IR Inten    --    155.9258                12.7006              1399.6468

                     22                     23                     24
                      A                      A                      A
 Frequencies --   1413.9930              1525.8489              1677.6230
 Red. masses --      2.4770                 4.6298                 8.4702
 Frc consts  --      2.9178                 6.3509                14.0453
 IR Inten    --    124.1497                11.4637              1471.4901

                     25                     26                     27
                      A                      A                      A
 Frequencies --   2006.8365              3291.4797              3317.1482
 Red. masses --      1.0724                 1.0926                 1.1029
 Frc consts  --      2.5447                 6.9741                 7.1503
 IR Inten    --    204.3110                 2.8606                 2.5932

 - Thermochemistry -
 -------------------
 Temperature   298.150 Kelvin.  Pressure   1.00000 Atm.
 Atom     1 has atomic number  7 and mass  14.00307

 Molecular mass:   113.02253 amu.
 Principal axes and moments of inertia in atomic units:
                           1         2         3
     Eigenvalues --   362.67260 931.335621254.72598
           X            0.99996   0.00243   0.00869
           Y           -0.00243   1.00000  -0.00032
           Z           -0.00869   0.00030   0.99996
 This molecule is an asymmetric top.
 Rotational symmetry number  1.
 Rotational temperatures (Kelvin)      0.23882     0.09300     0.06903
 Rotational constants (GHZ):           4.97623     1.93780     1.43835
    1 imaginary frequencies ignored.
 Zero-point vibrational energy     177308.0 (Joules/Mol)
                                   42.37762 (Kcal/Mol)
 Warning -- explicit consideration of   6 degrees of freedom as
           vibrations may cause significant error
 Vibrational temperatures:    164.20   237.65   461.60   699.12   813.53
          (Kelvin)            887.88   952.55  1073.57  1088.09  1139.06
                             1281.67  1286.66  1363.63  1599.86  1612.37
                             1654.19  1723.02  1767.29  1856.69  1948.64
                             2034.42  2195.36  2413.73  2887.39  4735.71
                             4772.64

 Zero-point correction=                           0.067533 (Hartree/Particle)
 Thermal correction to Energy=                    0.073338
 Thermal correction to Enthalpy=                  0.074283
 Thermal correction to Gibbs Free Energy=         0.036545
 Sum of electronic and zero-point Energies=           -430.676086
 Sum of electronic and thermal Energies=              -430.670280
 Sum of electronic and thermal Enthalpies=            -430.669336
 Sum of electronic and thermal Free Energies=         -430.707074

                     E (Thermal)             CV                S
                      KCal/Mol        Cal/Mol-Kelvin    Cal/Mol-Kelvin
 Total                   46.021             20.960             79.427
 Electronic               0.000              0.000              1.377
 Translational            0.889              2.981             40.083
 Rotational               0.889              2.981             27.541
 Vibrational             44.243             14.999             10.426
 Vibration     1          0.607              1.938              3.198
 Vibration     2          0.624              1.885              2.490
 Vibration     3          0.706              1.634              1.306
 Vibration     4          0.842              1.281              0.694
 Vibration     5          0.921              1.106              0.513
 Vibration     6          0.977              0.996              0.421

 Optimization completed.
    -- Stationary point found.
 Normal termination of Gaussian 16 at Sat Jul  1 04:50:49 2023.
