 Gaussian 16, Revision A.03,
 Gaussian 16:  ES64L-G16RevA.03 25-Dec-2016

 -----------------------------------------------------
 # opt freq 6-31+g(d,p) scrf=(smd,solvent=water) m062x
 -----------------------------------------------------

 -------------------
 Title Card Required
 -------------------
 Symbolic Z-matrix:
 Charge = -1 Multiplicity = 2

 SCF Done:  E(UM062X) =  -523.196209640     A.U. after   19 cycles
 SCF Done:  E(UM062X) =  -523.210222232     A.U. after   17 cycles
 SCF Done:  E(UM062X) =  -523.201549339     A.U. after   17 cycles
 SCF Done:  E(UM062X) =  -523.212479907     A.U. after   15 cycles
 SCF Done:  E(UM062X) =  -523.213765998     A.U. after   16 cycles
 SCF Done:  E(UM062X) =  -523.215580675     A.U. after   15 cycles
 SCF Done:  E(UM062X) =  -523.216076530     A.U. after   13 cycles
 SCF Done:  E(UM062X) =  -523.213112633     A.U. after   18 cycles
 SCF Done:  E(UM062X) =  -523.216762835     A.U. after   15 cycles
 SCF Done:  E(UM062X) =  -523.217199343     A.U. after   14 cycles
 SCF Done:  E(UM062X) =  -523.217640607     A.U. after   13 cycles
 SCF Done:  E(UM062X) =  -523.217648700     A.U. after   12 cycles
 SCF Done:  E(UM062X) =  -523.217653076     A.U. after   11 cycles
 SCF Done:  E(UM062X) =  -523.217658451     A.U. after   11 cycles
 SCF Done:  E(UM062X) =  -523.217666300     A.U. after   12 cycles
 SCF Done:  E(UM062X) =  -523.217670292     A.U. after   11 cycles
 SCF Done:  E(UM062X) =  -523.217674013     A.U. after   11 cycles
 SCF Done:  E(UM062X) =  -523.217674671     A.U. after   10 cycles
 SCF Done:  E(UM062X) =  -523.217674766     A.U. after    8 cycles
 Optimization completed.
    -- Stationary point found.
 Normal termination of Gaussian 16 at Mon Nov  6 19:19:09 2023.

 ----------------------------------------------------------------------
 #N Geom=AllCheck Guess=TCheck SCRF=Check GenChk UM062X/6-31+G(d,p) Fre
 q
 ----------------------------------------------------------------------

 Structure from the checkpoint file:  "/scratch/gongke2021/sidanzuo-PC/Gau-18069.chk"
 -------------------
 Title Card Required
 -------------------
 Charge = -1 Multiplicity = 2

                         Standard orientation:
 ---------------------------------------------------------------------
 Center     Atomic      Atomic             Coordinates (Angstroms)
 Number     Number       Type             X           Y           Z
 ---------------------------------------------------------------------
      1          7           0        0.140456   -1.053503   -0.046630
      2          7           0        0.491105    0.277569    0.000748
      3          7           0        1.865750    0.465610    0.042572
      4          7           0        2.368955   -0.785446    0.021855
      5          6           0        1.344268   -1.628208   -0.029501
      6          6           0       -0.379306    1.318005   -0.006485
      7          8           0       -0.006285    2.498648    0.025935
      8          8           0       -1.690936    1.025828   -0.054307
      9          1           0       -3.052746   -1.752708    0.796119
     10          1           0        1.461963   -2.702217   -0.056143
     11          8           0       -2.633102   -1.556746   -0.052242
     12          1           0       -1.698769   -1.820395    0.042409
     13          1           0       -1.921501    0.065086   -0.051375
 ---------------------------------------------------------------------

 SCF Done:  E(UM062X) =  -523.217674766     A.U. after    1 cycles

 The electronic state is 2-A.
 Alpha  occ. eigenvalues --  -19.67989 -19.65110 -19.62625 -14.86196 -14.80014
 Alpha  occ. eigenvalues --  -14.78650 -14.77306 -10.70744 -10.59454  -1.24638
 Alpha  occ. eigenvalues --   -1.19952  -1.13775  -1.12711  -1.02950  -0.97308
 Alpha  occ. eigenvalues --   -0.80744  -0.70881  -0.69503  -0.64848  -0.60589
 Alpha  occ. eigenvalues --   -0.58420  -0.55100  -0.51892  -0.50879  -0.48939
 Alpha  occ. eigenvalues --   -0.47774  -0.44126  -0.40952  -0.40307  -0.38305
 Alpha  occ. eigenvalues --   -0.38116  -0.36843  -0.35916  -0.35623  -0.17642
 Alpha virt. eigenvalues --    0.02291   0.04471   0.04629   0.05006   0.06704
 Alpha virt. eigenvalues --    0.06846   0.07022   0.09319   0.09949   0.10404
 Alpha virt. eigenvalues --    0.10978   0.13367   0.14975   0.16079   0.17761

  Beta  occ. eigenvalues --  -19.67929 -19.65110 -19.62430 -14.86121 -14.79331
  Beta  occ. eigenvalues --  -14.78298 -14.77182 -10.70643 -10.59490  -1.24012
  Beta  occ. eigenvalues --   -1.19258  -1.13638  -1.12367  -1.01899  -0.96185
  Beta  occ. eigenvalues --   -0.79470  -0.70445  -0.69103  -0.64098  -0.60503
  Beta  occ. eigenvalues --   -0.56588  -0.54662  -0.51550  -0.49223  -0.48793
  Beta  occ. eigenvalues --   -0.47642  -0.43128  -0.40774  -0.38848  -0.37435
  Beta  occ. eigenvalues --   -0.36105  -0.35130  -0.34768  -0.32155
  Beta virt. eigenvalues --   -0.00798   0.02105   0.04361   0.04609   0.04810
  Beta virt. eigenvalues --    0.06632   0.06820   0.07674   0.10006   0.10837
  Beta virt. eigenvalues --    0.10864   0.12261   0.13350   0.14661   0.15987

 Mulliken charges and spin densities:
               1          2
     1  N   -0.609424   0.248911
     2  N    0.128876  -0.004105
     3  N   -0.360541   0.447809
     4  N   -0.402412   0.099664
     5  C    0.012589  -0.040035
     6  C    0.771274   0.138461
     7  O   -0.679425   0.091620
     8  O   -0.588329   0.017725
     9  H    0.444785   0.000019
    10  H    0.210157   0.000103
    11  O   -0.859099   0.002000
    12  H    0.465530  -0.001630
    13  H    0.466019  -0.000542
 Sum of Mulliken charges =  -1.00000   1.00000

 Dipole moment (field-independent basis, Debye):
    X=             -5.2922    Y=             -8.8238    Z=              1.9816  Tot=             10.4782
 Quadrupole moment (field-independent basis, Debye-Ang):
   XX=            -76.4182   YY=            -69.9949   ZZ=            -53.8114
   XY=              1.3471   XZ=             -7.1019   YZ=             -3.9966

  Exact polarizability: 124.758 -13.371 135.858   0.502   0.892  60.140
 Approx polarizability: 102.129  -3.759 105.870   0.443   0.717  54.392

                      1                      2                      3
                      A                      A                      A
 Frequencies --     40.3148               110.9282               137.8146
 Red. masses --      7.7757                 6.1717                 5.4088
 Frc consts  --      0.0074                 0.0447                 0.0605
 IR Inten    --      2.0101                74.1066                 5.6521

                      4                      5                      6
                      A                      A                      A
 Frequencies --    138.8163               148.8625               256.1800
 Red. masses --      6.7123                 7.8210                 5.6616
 Frc consts  --      0.0762                 0.1021                 0.2189
 IR Inten    --      4.9300                 7.8878                23.3737

                      7                      8                      9
                      A                      A                      A
 Frequencies --    289.6875               296.9928               447.9705
 Red. masses --      1.1940                 1.1288                 5.4249
 Frc consts  --      0.0590                 0.0587                 0.6414
 IR Inten    --    150.0154               250.9681                37.0016

                     10                     11                     12
                      A                      A                      A
 Frequencies --    467.7483               552.5651               590.8858
 Red. masses --     13.3518                 5.1928                 1.3950
 Frc consts  --      1.7211                 0.9342                 0.2870
 IR Inten    --     20.7940                23.0707               315.7305

                     13                     14                     15
                      A                      A                      A
 Frequencies --    639.4494               646.6165               733.1332
 Red. masses --      3.7329                 4.6892                 1.3291
 Frc consts  --      0.8993                 1.1552                 0.4209
 IR Inten    --    218.9414                 3.4845               134.7910

                     16                     17                     18
                      A                      A                      A
 Frequencies --    759.8764               909.5736               915.7970
 Red. masses --      7.8233                 1.3207                 9.6500
 Frc consts  --      2.6615                 0.6438                 4.7684
 IR Inten    --     14.2292                23.5615                63.8323

                     19                     20                     21
                      A                      A                      A
 Frequencies --    983.4800              1085.0767              1108.4900
 Red. masses --      8.9174                 5.8126                 6.9293
 Frc consts  --      5.0818                 4.0322                 5.0165
 IR Inten    --     17.8893               514.1852                28.7375

                     22                     23                     24
                      A                      A                      A
 Frequencies --   1194.6263              1261.3111              1292.5345
 Red. masses --      2.6922                 1.2462                 3.5351
 Frc consts  --      2.2637                 1.1682                 3.4797
 IR Inten    --    122.5096               559.7004                55.4333

                     25                     26                     27
                      A                      A                      A
 Frequencies --   1335.6640              1469.3918              1508.6869
 Red. masses --      6.8913                11.9276                 4.0470
 Frc consts  --      7.2435                15.1732                 5.4273
 IR Inten    --    122.1086               543.6885                71.4880

                     28                     29                     30
                      A                      A                      A
 Frequencies --   1564.1988              1683.4191              3305.9871
 Red. masses --      1.0843                 8.6477                 1.0973
 Frc consts  --      1.5631                14.4389                 7.0659
 IR Inten    --    183.1490              1592.8365                 1.2847

                     31                     32                     33
                      A                      A                      A
 Frequencies --   3388.5779              3677.8023              3891.4456
 Red. masses --      1.0731                 1.0572                 1.0718
 Frc consts  --      7.2598                 8.4250                 9.5624
 IR Inten    --   1152.6756               670.4447               238.5776

 - Thermochemistry -
 -------------------
 Temperature   298.150 Kelvin.  Pressure   1.00000 Atm.
 Atom     1 has atomic number  7 and mass  14.00307

 Molecular mass:   132.02834 amu.
 Principal axes and moments of inertia in atomic units:
                           1         2         3
     Eigenvalues --   894.392301178.699462067.44329
           X            0.99831   0.05758  -0.00768
           Y           -0.05763   0.99832  -0.00555
           Z            0.00734   0.00598   0.99996
 This molecule is an asymmetric top.
 Rotational symmetry number  1.
 Warning -- assumption of classical behavior for rotation
           may cause significant error
 Rotational temperatures (Kelvin)      0.09684     0.07348     0.04189
 Rotational constants (GHZ):           2.01784     1.53113     0.87293
 Zero-point vibrational energy     220315.7 (Joules/Mol)
                                   52.65671 (Kcal/Mol)
 Warning -- explicit consideration of  12 degrees of freedom as
           vibrations may cause significant error
 Vibrational temperatures:     58.00   159.60   198.28   199.73   214.18
          (Kelvin)            368.59   416.80   427.31   644.53   672.99
                              795.02   850.15   920.03   930.34  1054.82
                             1093.29  1308.67  1317.63  1415.01  1561.18
                             1594.87  1718.80  1814.75  1859.67  1921.72
                             2114.13  2170.66  2250.53  2422.06  4756.58
                             4875.41  5291.54  5598.92

 Zero-point correction=                           0.083914 (Hartree/Particle)
 Thermal correction to Energy=                    0.093218
 Thermal correction to Enthalpy=                  0.094162
 Thermal correction to Gibbs Free Energy=         0.048071
 Sum of electronic and zero-point Energies=           -523.133761
 Sum of electronic and thermal Energies=              -523.124456
 Sum of electronic and thermal Enthalpies=            -523.123512
 Sum of electronic and thermal Free Energies=         -523.169604

                     E (Thermal)             CV                S
                      KCal/Mol        Cal/Mol-Kelvin    Cal/Mol-Kelvin
 Total                   58.495             31.826             97.007
 Electronic               0.000              0.000              1.377
 Translational            0.889              2.981             40.546
 Rotational               0.889              2.981             29.168
 Vibrational             56.718             25.865             25.916
 Vibration     1          0.594              1.981              5.244
 Vibration     2          0.607              1.940              3.253
 Vibration     3          0.614              1.916              2.834
 Vibration     4          0.614              1.915              2.820
 Vibration     5          0.618              1.904              2.687
 Vibration     6          0.666              1.752              1.688
 Vibration     7          0.686              1.693              1.476
 Vibration     8          0.691              1.679              1.434
 Vibration     9          0.807              1.365              0.802
 Vibration    10          0.825              1.322              0.744
 Vibration    11          0.908              1.134              0.539
 Vibration    12          0.948              1.051              0.466

                           ! Non-Optimized Parameters !
 Normal termination of Gaussian 16 at Mon Nov  6 19:21:25 2023.
