 Gaussian 16, Revision A.03,
 Gaussian 16:  ES64L-G16RevA.03 25-Dec-2016

 -----------------------------------------------------
 # opt freq 6-31+g(d,p) m062x scrf=(SMD,solvent=water)
 -----------------------------------------------------

 -----------
 "1-H-Tz-TS"
 -----------
 Symbolic Z-matrix:
 Charge =  0 Multiplicity = 1

 SCF Done:  E(RM062X) =  -507.088799853     A.U. after   14 cycles
 SCF Done:  E(RM062X) =  -507.087353596     A.U. after   12 cycles
 SCF Done:  E(RM062X) =  -507.089968080     A.U. after   12 cycles
 SCF Done:  E(RM062X) =  -507.090158289     A.U. after   12 cycles
 SCF Done:  E(RM062X) =  -507.089644764     A.U. after   13 cycles
 SCF Done:  E(RM062X) =  -507.090522623     A.U. after   12 cycles
 SCF Done:  E(RM062X) =  -507.090846129     A.U. after   12 cycles
 SCF Done:  E(RM062X) =  -507.090735598     A.U. after   12 cycles
 SCF Done:  E(RM062X) =  -507.091218082     A.U. after   11 cycles
 SCF Done:  E(RM062X) =  -507.091303521     A.U. after   11 cycles
 SCF Done:  E(RM062X) =  -507.091344238     A.U. after   10 cycles
 SCF Done:  E(RM062X) =  -507.091371007     A.U. after   11 cycles
 SCF Done:  E(RM062X) =  -507.091386685     A.U. after    9 cycles
 SCF Done:  E(RM062X) =  -507.091398174     A.U. after   10 cycles
 SCF Done:  E(RM062X) =  -507.091400803     A.U. after    9 cycles
 SCF Done:  E(RM062X) =  -507.091401666     A.U. after    9 cycles
 Optimization completed.
    -- Stationary point found.
 Normal termination of Gaussian 16 at Wed Jul  5 13:51:04 2023.

 ----------------------------------------------------------------------
 #N Geom=AllCheck Guess=TCheck SCRF=Check GenChk RM062X/6-31+G(d,p) Fre
 q
 ----------------------------------------------------------------------

 Structure from the checkpoint file:  "/scratch/gongke2021/PC/Gau-12454.chk"
 -----------
 "1-H-Tz-TS"
 -----------
 Charge =  0 Multiplicity = 1

                         Standard orientation:
 ---------------------------------------------------------------------
 Center     Atomic      Atomic             Coordinates (Angstroms)
 Number     Number       Type             X           Y           Z
 ---------------------------------------------------------------------
      1          7           0        0.501622    0.272496   -0.004953
      2          7           0        0.272697   -1.039943   -0.078122
      3          6           0        1.477667   -1.576518   -0.049447
      4          6           0        2.427233   -0.533213    0.042224
      5          7           0        1.787001    0.619959    0.067175
      6          1           0        1.622742   -2.645496   -0.094328
      7          1           0        3.504496   -0.582094    0.088614
      8          1           0       -1.816553   -2.160865    0.201322
      9          6           0       -0.537234    1.257197   -0.013913
     10          8           0       -1.752589    0.804442   -0.056664
     11          8           0       -0.242058    2.431983    0.012845
     12          8           0       -2.538807   -1.557449   -0.028230
     13          1           0       -3.222692   -1.676722    0.646786
     14          1           0       -1.955604   -0.219004   -0.027881
 ---------------------------------------------------------------------

 SCF Done:  E(RM062X) =  -507.091401666     A.U. after    1 cycles

 The electronic state is 1-A.
 Alpha  occ. eigenvalues --  -19.69110 -19.67658 -19.65743 -14.89994 -14.82925
 Alpha  occ. eigenvalues --  -14.82656 -10.74687 -10.59841 -10.59672  -1.27816
 Alpha  occ. eigenvalues --   -1.22862  -1.17099  -1.15314  -1.02452  -0.96446
 Alpha  occ. eigenvalues --   -0.77554  -0.73647  -0.71673  -0.65877  -0.62904
 Alpha  occ. eigenvalues --   -0.60592  -0.57506  -0.55710  -0.53120  -0.52971
 Alpha  occ. eigenvalues --   -0.51442  -0.47438  -0.43019  -0.42095  -0.40867
 Alpha  occ. eigenvalues --   -0.40129  -0.38848  -0.37715  -0.34868
 Alpha virt. eigenvalues --   -0.02267   0.01593   0.03472   0.03965   0.04641
 Alpha virt. eigenvalues --    0.06200   0.06418   0.06486   0.08089   0.08585
 Alpha virt. eigenvalues --    0.09658   0.10497   0.10857   0.11333   0.12461

 Mulliken charges:
               1
     1  N   -0.160591
     2  N   -0.180365
     3  C   -0.142655
     4  C   -0.131874
     5  N   -0.195931
     6  H    0.237906
     7  H    0.238361
     8  H    0.461711
     9  C    0.829364
    10  O   -0.589106
    11  O   -0.551782
    12  O   -0.825681
    13  H    0.460313
    14  H    0.550330
 Sum of Mulliken charges =  -0.00000

 Dipole moment (field-independent basis, Debye):
    X=              0.0455    Y=            -10.2930    Z=              2.0766  Tot=             10.5005
 Quadrupole moment (field-independent basis, Debye-Ang):
   XX=            -39.0146   YY=            -56.5395   ZZ=            -51.7692
   XY=              1.5107   XZ=             -6.4628   YZ=             -3.9915

  Exact polarizability: 108.426  -7.258 114.860   0.896   1.265  54.209
 Approx polarizability:  94.976  -3.333 101.587   0.873   1.209  50.831

                      1                      2                      3
                      A                      A                      A
 Frequencies --      8.1964               106.2730               149.7810
 Red. masses --      6.5399                 8.6232                 4.8717
 Frc consts  --      0.0003                 0.0574                 0.0644
 IR Inten    --      3.1265                 3.0373                 1.3971

                      4                      5                      6
                      A                      A                      A
 Frequencies --    159.2837               199.3181               227.3498
 Red. masses --      6.5733                 1.1415                 3.9649
 Frc consts  --      0.0983                 0.0267                 0.1207
 IR Inten    --      1.0710                86.5663                82.0881

                      7                      8                      9
                      A                      A                      A
 Frequencies --    294.9396               424.4796               450.4313
 Red. masses --      6.6778                 1.1442                 3.7484
 Frc consts  --      0.3423                 0.1215                 0.4481
 IR Inten    --    109.7169               374.0942                37.6989

                     10                     11                     12
                      A                      A                      A
 Frequencies --    527.8712               589.8071               663.5167
 Red. masses --      2.0772                 2.9685                13.2867
 Frc consts  --      0.3410                 0.6084                 3.4465
 IR Inten    --      7.1457                64.6404                19.1455

                     13                     14                     15
                      A                      A                      A
 Frequencies --    672.1038               756.4886               773.4802
 Red. masses --      3.4000                10.9369                 8.9178
 Frc consts  --      0.9049                 3.6877                 3.1435
 IR Inten    --      0.2635                94.3305               219.5300

                     16                     17                     18
                      A                      A                      A
 Frequencies --    874.9012               938.2502               956.4730
 Red. masses --      1.1829                 1.4200                 7.4868
 Frc consts  --      0.5335                 0.7365                 4.0354
 IR Inten    --     76.6219                 0.0415                35.9486

                     19                     20                     21
                      A                      A                      A
 Frequencies --    994.8532              1031.7500              1082.9767
 Red. masses --      4.1716                 1.0615                 1.7331
 Frc consts  --      2.4326                 0.6658                 1.1976
 IR Inten    --    113.8891               274.7980                57.6180

                     22                     23                     24
                      A                      A                      A
 Frequencies --   1209.3510              1266.5099              1310.2522
 Red. masses --      1.4769                 4.4471                 1.2074
 Frc consts  --      1.2726                 4.2028                 1.2212
 IR Inten    --     35.2479                25.4273              1204.7948

                     25                     26                     27
                      A                      A                      A
 Frequencies --   1330.3406              1359.4667              1393.5214
 Red. masses --     10.8031                 6.0573                 4.6766
 Frc consts  --     11.2648                 6.5958                 5.3506
 IR Inten    --    800.1894                13.5372               595.7725

                     28                     29                     30
                      A                      A                      A
 Frequencies --   1488.9866              1575.6268              1584.0159
 Red. masses --      5.0425                 1.0978                 5.5460
 Frc consts  --      6.5869                 1.6058                 8.1988
 IR Inten    --     35.9856               264.6911                 2.8166

                     31                     32                     33
                      A                      A                      A
 Frequencies --   1799.8343              2403.1304              3313.4068
 Red. masses --      9.1883                 1.1122                 1.0961
 Frc consts  --     17.5368                 3.7845                 7.0902
 IR Inten    --   1159.3818              3099.0499                 3.3046

                     34                     35                     36
                      A                      A                      A
 Frequencies --   3326.9723              3811.3102              3903.5012
 Red. masses --      1.1052                 1.0456                 1.0829
 Frc consts  --      7.2077                 8.9488                 9.7217
 IR Inten    --      4.3740                91.0581               313.6186

 - Thermochemistry -
 -------------------
 Temperature   298.150 Kelvin.  Pressure   1.00000 Atm.
 Atom     1 has atomic number  7 and mass  14.00307

 Molecular mass:   131.03309 amu.
 Principal axes and moments of inertia in atomic units:
                           1         2         3
     Eigenvalues --   831.044341200.995022026.89058
           X            0.99941   0.03376  -0.00673
           Y           -0.03380   0.99941  -0.00594
           Z            0.00652   0.00616   0.99996
 This molecule is an asymmetric top.
 Rotational symmetry number  1.
 Warning -- assumption of classical behavior for rotation
           may cause significant error
 Rotational temperatures (Kelvin)      0.10422     0.07212     0.04273
 Rotational constants (GHZ):           2.17165     1.50270     0.89040
 Zero-point vibrational energy     256950.4 (Joules/Mol)
                                   61.41262 (Kcal/Mol)
 Warning -- explicit consideration of  11 degrees of freedom as
           vibrations may cause significant error
 Vibrational temperatures:     11.79   152.90   215.50   229.17   286.77
          (Kelvin)            327.11   424.35   610.73   648.07   759.49
                              848.60   954.65   967.01  1088.42  1112.87
                             1258.79  1349.93  1376.15  1431.37  1484.46
                             1558.16  1739.99  1822.23  1885.16  1914.06
                             1955.97  2004.97  2142.32  2266.98  2279.05
                             2589.56  3457.57  4767.25  4786.77  5483.63
                             5616.27

 Zero-point correction=                           0.097867 (Hartree/Particle)
 Thermal correction to Energy=                    0.106803
 Thermal correction to Enthalpy=                  0.107747
 Thermal correction to Gibbs Free Energy=         0.061754
 Sum of electronic and zero-point Energies=           -506.993534
 Sum of electronic and thermal Energies=              -506.984598
 Sum of electronic and thermal Enthalpies=            -506.983654
 Sum of electronic and thermal Free Energies=         -507.029648

                     E (Thermal)             CV                S
                      KCal/Mol        Cal/Mol-Kelvin    Cal/Mol-Kelvin
 Total                   67.020             30.758             96.801
 Electronic               0.000              0.000              0.000
 Translational            0.889              2.981             40.524
 Rotational               0.889              2.981             29.094
 Vibrational             65.243             24.796             27.184
 Vibration     1          0.593              1.987              8.406
 Vibration     2          0.605              1.944              3.336
 Vibration     3          0.618              1.903              2.675
 Vibration     4          0.621              1.892              2.558
 Vibration     5          0.637              1.841              2.139
 Vibration     6          0.651              1.799              1.900
 Vibration     7          0.689              1.683              1.445
 Vibration     8          0.786              1.417              0.877
 Vibration     9          0.809              1.360              0.794
 Vibration    10          0.883              1.188              0.592
 Vibration    11          0.947              1.054              0.468

                           ! Non-Optimized Parameters !
 Normal termination of Gaussian 16 at Wed Jul  5 13:52:06 2023.
