 Gaussian 16, Revision A.03,
 Gaussian 16:  ES64L-G16RevA.03 25-Dec-2016

 -----------------------------------------------------
 # opt freq 6-31+g(d,p) m062x scrf=(SMD,solvent=water)
 -----------------------------------------------------

 ----
 test
 ----
 Symbolic Z-matrix:
 Charge =  0 Multiplicity = 1

 SCF Done:  E(RM062X) =  -583.508732157     A.U. after   14 cycles
 SCF Done:  E(RM062X) =  -583.508989517     A.U. after   11 cycles
 SCF Done:  E(RM062X) =  -583.508983033     A.U. after   11 cycles
 SCF Done:  E(RM062X) =  -583.509289241     A.U. after   10 cycles
 SCF Done:  E(RM062X) =  -583.509416818     A.U. after   10 cycles
 SCF Done:  E(RM062X) =  -583.509453463     A.U. after   11 cycles
 SCF Done:  E(RM062X) =  -583.509532822     A.U. after   10 cycles
 SCF Done:  E(RM062X) =  -583.509575105     A.U. after   10 cycles
 SCF Done:  E(RM062X) =  -583.509621378     A.U. after   11 cycles
 SCF Done:  E(RM062X) =  -583.509635780     A.U. after   10 cycles
 SCF Done:  E(RM062X) =  -583.509884342     A.U. after    9 cycles
 SCF Done:  E(RM062X) =  -583.509884655     A.U. after    8 cycles
 SCF Done:  E(RM062X) =  -583.509884883     A.U. after    9 cycles
 SCF Done:  E(RM062X) =  -583.509885047     A.U. after    8 cycles
 SCF Done:  E(RM062X) =  -583.509885123     A.U. after    7 cycles
 SCF Done:  E(RM062X) =  -583.509885212     A.U. after    8 cycles
 SCF Done:  E(RM062X) =  -583.509885266     A.U. after    8 cycles
 SCF Done:  E(RM062X) =  -583.509885313     A.U. after    8 cycles
 SCF Done:  E(RM062X) =  -583.509885354     A.U. after    8 cycles
 Optimization completed.
    -- Stationary point found.
 Normal termination of Gaussian 16 at Thu Jul  6 20:08:17 2023.

 ----------------------------------------------------------------------
 #N Geom=AllCheck Guess=TCheck SCRF=Check GenChk RM062X/6-31+G(d,p) Fre
 q
 ----------------------------------------------------------------------

 Structure from the checkpoint file:  "/scratch/gongke2021/RC-2-N-test/Gau-31509.chk"
 ----
 test
 ----
 Charge =  0 Multiplicity = 1

                         Standard orientation:
 ---------------------------------------------------------------------
 Center     Atomic      Atomic             Coordinates (Angstroms)
 Number     Number       Type             X           Y           Z
 ---------------------------------------------------------------------
      1          7           0       -0.350087    0.296959    0.112614
      2          7           0       -1.443445    1.038163   -0.021354
      3          6           0       -1.140384    2.348277   -0.063321
      4          6           0        0.231886    2.376761    0.054831
      5          7           0        0.676829    1.097690    0.159877
      6          1           0       -1.888089    3.118259   -0.169919
      7          1           0        0.904924    3.219867    0.069293
      8          1           0       -2.349402    0.552686   -0.082315
      9          6           0        2.752324   -0.774264   -0.051356
     10          8           0        3.596161    0.021170   -0.148557
     11          8           0        1.945196   -1.606979    0.041095
     12          8           0       -1.088202   -2.481027    0.162996
     13          1           0       -0.610116   -1.628021    0.133987
     14          1           0       -0.754736   -2.990336   -0.587175
     15          8           0       -3.425264   -0.969147   -0.207915
     16          1           0       -2.733697   -1.648882   -0.075491
     17          1           0       -4.038046   -1.070034    0.531783
 ---------------------------------------------------------------------

 SCF Done:  E(RM062X) =  -583.509885354     A.U. after    1 cycles

 The electronic state is 1-A.
 Alpha  occ. eigenvalues --  -19.72592 -19.72569 -19.64663 -19.64557 -14.85249
 Alpha  occ. eigenvalues --  -14.83767 -14.80067 -10.75021 -10.59644 -10.57672
 Alpha  occ. eigenvalues --   -1.28752  -1.23788  -1.22989  -1.13390  -1.12183
 Alpha  occ. eigenvalues --   -1.01400  -0.91185  -0.72900  -0.71133  -0.65796
 Alpha  occ. eigenvalues --   -0.64886  -0.60865  -0.60657  -0.59802  -0.59712
 Alpha  occ. eigenvalues --   -0.59405  -0.55637  -0.52619  -0.51671  -0.48800
 Alpha  occ. eigenvalues --   -0.46712  -0.44130  -0.44076  -0.41843  -0.40289
 Alpha  occ. eigenvalues --   -0.39771  -0.37228  -0.36249  -0.32603
 Alpha virt. eigenvalues --    0.01291   0.02745   0.03103   0.04097   0.04934
 Alpha virt. eigenvalues --    0.05544   0.06270   0.06596   0.07794   0.08069
 Alpha virt. eigenvalues --    0.08778   0.08957   0.09317   0.10384   0.11972

 Mulliken charges:
               1
     1  N   -0.110004
     2  N   -0.239610
     3  C   -0.111589
     4  C   -0.202673
     5  N   -0.315122
     6  H    0.250403
     7  H    0.221971
     8  H    0.448219
     9  C    0.830496
    10  O   -0.397128
    11  O   -0.417784
    12  O   -0.863347
    13  H    0.462046
    14  H    0.435578
    15  O   -0.900082
    16  H    0.470026
    17  H    0.438600
 Sum of Mulliken charges =  -0.00000

 Dipole moment (field-independent basis, Debye):
    X=             -3.6186    Y=              2.6164    Z=             -0.4141  Tot=              4.4845
 Quadrupole moment (field-independent basis, Debye-Ang):
   XX=            -55.6787   YY=            -47.8406   ZZ=            -59.4873
   XY=             -7.6522   XZ=             -5.7095   YZ=              3.3035

  Exact polarizability: 110.810  10.802 113.648   0.779  -2.215  65.187
 Approx polarizability: 102.752  11.909 103.463   0.204  -2.353  59.209

                      1                      2                      3
                      A                      A                      A
 Frequencies --     17.2372                31.7571                50.4795
 Red. masses --      9.9276                 8.0759                 5.9383
 Frc consts  --      0.0017                 0.0048                 0.0089
 IR Inten    --      1.5787                 2.9126                12.2109

                      4                      5                      6
                      A                      A                      A
 Frequencies --     59.8956                82.2292                87.3619
 Red. masses --      6.6857                 4.1263                 6.9002
 Frc consts  --      0.0141                 0.0164                 0.0310
 IR Inten    --      3.0404                10.0615                 5.2555

                      7                      8                      9
                      A                      A                      A
 Frequencies --    116.1280               135.5503               152.4401
 Red. masses --      8.1663                10.4485                 5.8843
 Frc consts  --      0.0649                 0.1131                 0.0806
 IR Inten    --     10.0571                 2.5951                41.3857

                     10                     11                     12
                      A                      A                      A
 Frequencies --    168.5454               199.2049               216.8263
 Red. masses --      4.4818                 2.4218                 1.5684
 Frc consts  --      0.0750                 0.0566                 0.0434
 IR Inten    --      4.0756                55.4233               269.5242

                     13                     14                     15
                      A                      A                      A
 Frequencies --    233.4977               370.3402               398.4286
 Red. masses --      1.2409                 1.0784                 1.0869
 Frc consts  --      0.0399                 0.0871                 0.1017
 IR Inten    --    178.3948                41.8760               230.4592

                     16                     17                     18
                      A                      A                      A
 Frequencies --    580.8932               636.2540               657.1693
 Red. masses --      1.0468                12.5273                 3.7293
 Frc consts  --      0.2081                 2.9879                 0.9489
 IR Inten    --    373.8936               122.4770                 0.9299

                     19                     20                     21
                      A                      A                      A
 Frequencies --    665.1216               730.6996               777.1663
 Red. masses --     12.7800                 9.4585                 1.0390
 Frc consts  --      3.3311                 2.9754                 0.3697
 IR Inten    --     57.6656                 6.3281               206.8845

                     22                     23                     24
                      A                      A                      A
 Frequencies --    821.7837               874.4713               919.4912
 Red. masses --      1.1970                 1.1394                 1.2912
 Frc consts  --      0.4763                 0.5133                 0.6432
 IR Inten    --    173.3486                82.4939                24.4943

                     25                     26                     27
                      A                      A                      A
 Frequencies --    970.2969               987.3060              1106.3554
 Red. masses --      6.9627                 2.5380                 1.8488
 Frc consts  --      3.8622                 1.4576                 1.3333
 IR Inten    --      4.5031                 8.7845                58.9390

                     28                     29                     30
                      A                      A                      A
 Frequencies --   1134.8882              1205.2349              1233.1240
 Red. masses --      1.3666                 2.5398                 6.1822
 Frc consts  --      1.0370                 2.1737                 5.5387
 IR Inten    --     70.9882                93.4277                 0.0466

                     31                     32                     33
                      A                      A                      A
 Frequencies --   1351.1184              1404.2326              1422.5378
 Red. masses --      9.0386                15.9620                 2.1481
 Frc consts  --      9.7216                18.5445                 2.5611
 IR Inten    --     42.1966                 1.6157                 6.8480

                     34                     35                     36
                      A                      A                      A
 Frequencies --   1509.1968              1581.9877              1589.1387
 Red. masses --      4.0336                 2.2031                 1.1830
 Frc consts  --      5.4129                 3.2486                 1.7602
 IR Inten    --      1.4046                91.4933               167.3415

                     37                     38                     39
                      A                      A                      A
 Frequencies --   1603.2157              2377.7570              3318.3687
 Red. masses --      1.0805                12.8692                 1.0953
 Frc consts  --      1.6363                42.8683                 7.1059
 IR Inten    --     61.7143              1562.3468                 5.6978

                     40                     41                     42
                      A                      A                      A
 Frequencies --   3332.0355              3338.3292              3580.0228
 Red. masses --      1.0966                 1.1087                 1.0615
 Frc consts  --      7.1734                 7.2798                 8.0156
 IR Inten    --    824.6839               349.8991               669.1374

                     43                     44                     45
                      A                      A                      A
 Frequencies --   3621.9164              3894.7078              3898.0065
 Red. masses --      1.0604                 1.0693                 1.0698
 Frc consts  --      8.1958                 9.5564                 9.5772
 IR Inten    --   1175.8802               275.8598               131.5302

 - Thermochemistry -
 -------------------
 Temperature   298.150 Kelvin.  Pressure   1.00000 Atm.
 Atom     1 has atomic number  7 and mass  14.00307

 Molecular mass:   149.04366 amu.
 Principal axes and moments of inertia in atomic units:
                           1         2         3
     Eigenvalues --  1313.851932340.918863634.42942
           X            0.99963   0.02713  -0.00149
           Y           -0.02713   0.99963   0.00199
           Z            0.00154  -0.00195   1.00000
 This molecule is an asymmetric top.
 Rotational symmetry number  1.
 Warning -- assumption of classical behavior for rotation
           may cause significant error
 Rotational temperatures (Kelvin)      0.06592     0.03700     0.02383
 Rotational constants (GHZ):           1.37363     0.77095     0.49657
 Zero-point vibrational energy     319658.6 (Joules/Mol)
                                   76.40025 (Kcal/Mol)
 Warning -- explicit consideration of  16 degrees of freedom as
           vibrations may cause significant error
 Vibrational temperatures:     24.80    45.69    72.63    86.18   118.31
          (Kelvin)            125.69   167.08   195.03   219.33   242.50
                              286.61   311.96   335.95   532.84   573.25
                              835.78   915.43   945.52   956.96  1051.31
                             1118.17  1182.36  1258.17  1322.94  1396.04
                             1420.51  1591.80  1632.85  1734.06  1774.19
                             1943.96  2020.38  2046.71  2171.40  2276.13
                             2286.42  2306.67  3421.06  4774.39  4794.06
                             4803.11  5150.85  5211.13  5603.62  5608.36

 Zero-point correction=                           0.121752 (Hartree/Particle)
 Thermal correction to Energy=                    0.135554
 Thermal correction to Enthalpy=                  0.136499
 Thermal correction to Gibbs Free Energy=         0.077890
 Sum of electronic and zero-point Energies=           -583.388134
 Sum of electronic and thermal Energies=              -583.374331
 Sum of electronic and thermal Enthalpies=            -583.373387
 Sum of electronic and thermal Free Energies=         -583.431996

                     E (Thermal)             CV                S
                      KCal/Mol        Cal/Mol-Kelvin    Cal/Mol-Kelvin
 Total                   85.062             43.094            123.353
 Electronic               0.000              0.000              0.000
 Translational            0.889              2.981             40.908
 Rotational               0.889              2.981             30.792
 Vibrational             83.284             37.132             51.653
 Vibration     1          0.593              1.986              6.929
 Vibration     2          0.594              1.983              5.717
 Vibration     3          0.595              1.977              4.799
 Vibration     4          0.597              1.973              4.461
 Vibration     5          0.600              1.961              3.837
 Vibration     6          0.601              1.958              3.718
 Vibration     7          0.608              1.936              3.164
 Vibration     8          0.613              1.918              2.866
 Vibration     9          0.619              1.900              2.642
 Vibration    10          0.625              1.881              2.452
 Vibration    11          0.637              1.841              2.140
 Vibration    12          0.646              1.815              1.985
 Vibration    13          0.654              1.790              1.852
 Vibration    14          0.742              1.533              1.078
 Vibration    15          0.765              1.473              0.968
 Vibration    16          0.938              1.073              0.484

                           ! Non-Optimized Parameters !
 Normal termination of Gaussian 16 at Thu Jul  6 20:09:39 2023.
