 Gaussian 16, Revision C.01,
 Gaussian 16:  ES64L-G16RevC.01  3-Jul-2019

 -----------------------------------------------------
 # opt freq 6-31+g(d,p) m062x scrf=(SMD,solvent=water)
 -----------------------------------------------------

 -------------------
 Title Card Required
 -------------------
 Symbolic Z-matrix:
 Charge =  0 Multiplicity = 1

 SCF Done:  E(RM062X) =  -446.670523403     A.U. after   14 cycles
 SCF Done:  E(RM062X) =  -446.695211390     A.U. after   12 cycles
 SCF Done:  E(RM062X) =  -446.701556978     A.U. after   12 cycles
 SCF Done:  E(RM062X) =  -446.703681804     A.U. after   11 cycles
 SCF Done:  E(RM062X) =  -446.704924460     A.U. after   11 cycles
 SCF Done:  E(RM062X) =  -446.705008112     A.U. after   11 cycles
 SCF Done:  E(RM062X) =  -446.705012059     A.U. after   11 cycles
 SCF Done:  E(RM062X) =  -446.705134294     A.U. after   10 cycles
 SCF Done:  E(RM062X) =  -446.705141124     A.U. after    9 cycles
 SCF Done:  E(RM062X) =  -446.705153753     A.U. after   10 cycles
 SCF Done:  E(RM062X) =  -446.705343798     A.U. after   12 cycles
 SCF Done:  E(RM062X) =  -446.705430828     A.U. after   10 cycles
 SCF Done:  E(RM062X) =  -446.705500732     A.U. after   11 cycles
 SCF Done:  E(RM062X) =  -446.705513463     A.U. after   10 cycles
 SCF Done:  E(RM062X) =  -446.705516027     A.U. after   11 cycles
 SCF Done:  E(RM062X) =  -446.705518711     A.U. after    9 cycles
 SCF Done:  E(RM062X) =  -446.705519592     A.U. after    9 cycles
 SCF Done:  E(RM062X) =  -446.705520415     A.U. after    9 cycles
 SCF Done:  E(RM062X) =  -446.705520783     A.U. after    8 cycles
 Optimization completed.
    -- Stationary point found.
 Normal termination of Gaussian 16 at Fri Oct 27 21:34:13 2023.

 ----------------------------------------------------------------------
 #N Geom=AllCheck Guess=TCheck SCRF=Check GenChk RM062X/6-31+G(d,p) Fre
 q
 ----------------------------------------------------------------------

 Structure from the checkpoint file:  "/home/Tinker/g16/scratch/Gau-1711544.chk"
 -------------------
 Title Card Required
 -------------------
 Charge =  0 Multiplicity = 1

                         Standard orientation:
 ---------------------------------------------------------------------
 Center     Atomic      Atomic             Coordinates (Angstroms)
 Number     Number       Type             X           Y           Z
 ---------------------------------------------------------------------
      1          7           0       -0.917949    0.848274   -0.000712
      2          7           0       -0.373865   -0.368085   -0.000348
      3          7           0       -1.351994   -1.203820    0.000471
      4          7           0       -2.536771   -0.560491    0.000579
      5          6           0       -2.247635    0.725790   -0.000229
      6          6           0        2.399895    0.060249    0.000158
      7          8           0        2.709510   -1.060177   -0.000602
      8          8           0        2.118988    1.189981    0.000908
      9          1           0       -0.336141    1.682344   -0.001622
     10          1           0       -2.941350    1.551834   -0.000334
 ---------------------------------------------------------------------

 SCF Done:  E(RM062X) =  -446.705520783     A.U. after    1 cycles

 The electronic state is 1-A.
 Alpha  occ. eigenvalues --  -19.73033 -19.73008 -14.87394 -14.85571 -14.84175
 Alpha  occ. eigenvalues --  -14.80595 -10.75401 -10.63803  -1.29190  -1.27992
 Alpha  occ. eigenvalues --   -1.24214  -1.06438  -1.00654  -0.76701  -0.75629
 Alpha  occ. eigenvalues --   -0.67515  -0.66073  -0.60926  -0.60105  -0.60085
 Alpha  occ. eigenvalues --   -0.58784  -0.56251  -0.46853  -0.44514  -0.44454
 Alpha  occ. eigenvalues --   -0.40153  -0.39333  -0.38109  -0.37483
 Alpha virt. eigenvalues --    0.01043   0.01791   0.03241   0.04203   0.04297
 Alpha virt. eigenvalues --    0.05423   0.05642   0.06176   0.08170   0.08206
 Alpha virt. eigenvalues --    0.08766   0.09323   0.09994   0.12770   0.14287

 Mulliken charges:
               1
     1  N   -0.337065
     2  N   -0.035505
     3  N   -0.052137
     4  N   -0.352558
     5  C    0.053057
     6  C    0.812518
     7  O   -0.389136
     8  O   -0.401019
     9  H    0.432590
    10  H    0.269256
 Sum of Mulliken charges =  -0.00000

 Dipole moment (field-independent basis, Debye):
    X=              0.3536    Y=              7.4931    Z=             -0.0046  Tot=              7.5014
 Quadrupole moment (field-independent basis, Debye-Ang):
   XX=            -47.5564   YY=            -45.7058   ZZ=            -43.8580
   XY=             -9.8045   XZ=              0.0075   YZ=             -0.0068

  Exact polarizability:      71.797      -5.744      88.952      -0.013       0.000      41.635
 Approx polarizability:      69.466      -4.937      90.754      -0.014       0.001      40.212

                      1                      2                      3
                      A                      A                      A
 Frequencies --     23.9346                34.2247                73.9010
 Red. masses --      8.1736                 7.7885                10.1859
 Frc consts  --      0.0028                 0.0054                 0.0328
 IR Inten    --     22.5579                 0.5268                16.1523

                      4                      5                      6
                      A                      A                      A
 Frequencies --    119.7280               147.0060               648.6271
 Red. masses --      8.1110                14.7622                12.9117
 Frc consts  --      0.0685                 0.1880                 3.2005
 IR Inten    --      7.2750                 1.0724                94.3803

                      7                      8                      9
                      A                      A                      A
 Frequencies --    661.8380               663.4804               717.1328
 Red. masses --     10.1588                 3.1646                 1.4029
 Frc consts  --      2.6218                 0.8208                 0.4251
 IR Inten    --     97.8685                48.0765                69.8801

                     10                     11                     12
                      A                      A                      A
 Frequencies --    757.4875               918.9875              1015.5869
 Red. masses --      6.4551                 1.3782                 5.7561
 Frc consts  --      2.1822                 0.6858                 3.4980
 IR Inten    --     21.4516                18.7951                 4.5222

                     13                     14                     15
                      A                      A                      A
 Frequencies --   1034.9712              1137.9864              1147.8725
 Red. masses --      4.7423                 3.3717                 2.5950
 Frc consts  --      2.9929                 2.5726                 2.0145
 IR Inten    --      6.5930                90.3556                37.7184

                     16                     17                     18
                      A                      A                      A
 Frequencies --   1173.9436              1313.0456              1369.3559
 Red. masses --      2.1915                 2.8627                10.1929
 Frc consts  --      1.7795                 2.9080                11.2611
 IR Inten    --     20.4573                 1.3853                49.4550

                     19                     20                     21
                      A                      A                      A
 Frequencies --   1404.6654              1515.4672              1553.3222
 Red. masses --     15.9928                 3.8567                 3.4176
 Frc consts  --     18.5918                 5.2187                 4.8585
 IR Inten    --      0.5481                17.8494                51.4233

                     22                     23                     24
                      A                      A                      A
 Frequencies --   2379.3490              3346.3318              3605.6436
 Red. masses --     12.8571                 1.1056                 1.0875
 Frc consts  --     42.8853                 7.2946                 8.3301
 IR Inten    --   1542.4255                29.3357               376.6905

 - Thermochemistry -
 -------------------
 Temperature   298.150 Kelvin.  Pressure   1.00000 Atm.
 Atom     1 has atomic number  7 and mass  14.00307

 Molecular mass:   114.01778 amu.
 Principal axes and moments of inertia in atomic units:
                           1         2         3
     Eigenvalues --   317.016571632.912931949.92922
           X            0.99990  -0.01408   0.00000
           Y            0.01408   0.99990  -0.00004
           Z           -0.00000   0.00004   1.00000
 This molecule is an asymmetric top.
 Rotational symmetry number  1.
 Rotational temperatures (Kelvin)      0.27322     0.05304     0.04442
 Rotational constants (GHZ):           5.69289     1.10523     0.92554
 Zero-point vibrational energy     160083.6 (Joules/Mol)
                                   38.26090 (Kcal/Mol)
 Warning -- explicit consideration of   5 degrees of freedom as
           vibrations may cause significant error
 Vibrational temperatures:     34.44    49.24   106.33   172.26   211.51
          (Kelvin)            933.23   952.24   954.60  1031.79  1089.86
                             1322.22  1461.20  1489.09  1637.31  1651.53
                             1689.04  1889.18  1970.20  2021.00  2180.42
                             2234.88  3423.35  4814.63  5187.72

 Zero-point correction=                           0.060973 (Hartree/Particle)
 Thermal correction to Energy=                    0.068499
 Thermal correction to Enthalpy=                  0.069443
 Thermal correction to Gibbs Free Energy=         0.025557
 Sum of electronic and zero-point Energies=           -446.644548
 Sum of electronic and thermal Energies=              -446.637022
 Sum of electronic and thermal Enthalpies=            -446.636078
 Sum of electronic and thermal Free Energies=         -446.679963

                     E (Thermal)             CV                S
                      KCal/Mol        Cal/Mol-Kelvin    Cal/Mol-Kelvin
 Total                   42.984             22.378             92.365
 Electronic               0.000              0.000              0.000
 Translational            0.889              2.981             40.109
 Rotational               0.889              2.981             28.403
 Vibrational             41.206             16.416             23.853
 Vibration     1          0.593              1.985              6.278
 Vibration     2          0.594              1.983              5.568
 Vibration     3          0.599              1.966              4.047
 Vibration     4          0.609              1.933              3.105
 Vibration     5          0.617              1.906              2.711

                           ! Non-Optimized Parameters !
 Normal termination of Gaussian 16 at Fri Oct 27 21:35:06 2023.
