 Gaussian 16, Revision C.01,
 Gaussian 16:  ES64L-G16RevC.01  3-Jul-2019

 -----------------------------------------------------
 # opt freq 6-31+g(d,p) scrf=(smd,solvent=water) m062x
 -----------------------------------------------------

 -------------------
 Title Card Required
 -------------------
 Symbolic Z-matrix:
 Charge = -1 Multiplicity = 1

 SCF Done:  E(RM062X) =  -241.685011890     A.U. after   13 cycles
 SCF Done:  E(RM062X) =  -241.686311557     A.U. after   13 cycles
 SCF Done:  E(RM062X) =  -241.688662969     A.U. after   12 cycles
 SCF Done:  E(RM062X) =  -241.688698069     A.U. after   10 cycles
 SCF Done:  E(RM062X) =  -241.688727628     A.U. after   10 cycles
 SCF Done:  E(RM062X) =  -241.688728188     A.U. after    9 cycles
 Optimization completed.
    -- Stationary point found.

 1\1\GINC-NODE01\FOpt\RM062X\6-31+G(d,p)\C2H2N3(1-)\GAU\02-Dec-2023\0\\
 # opt freq 6-31+g(d,p) scrf=(smd,solvent=water) m062x\\Title Card Requ
 ired\\-1,1\N,-0.2723802496,-0.3544698325,0.3351590038\N,-1.1053242304,
 0.6629425543,0.1278579535\C,-2.2949919564,0.1367532939,-0.23566127\C,-
 2.1538329387,-1.2413852941,-0.2423943457\N,-0.8816583446,-1.5179708945
 ,0.1171839209\H,-3.1513860629,0.7555677002,-0.4626855525\H,-2.86560321
 74,-2.0203985272,-0.4761417101\\Version=ES64L-G16RevC.01\State=1-A\HF=
 -241.6887282\RMSD=6.992e-09\RMSF=1.582e-04\Dipole=-2.1124903,-0.214383

 Normal termination of Gaussian 16 at Sat Dec  2 05:20:23 2023.

 ----------------------------------------------------------------------
 #N Geom=AllCheck Guess=TCheck SCRF=Check GenChk RM062X/6-31+G(d,p) Fre
 q
 ----------------------------------------------------------------------

 Structure from the checkpoint file:  "/home/gau/soft/scratch/Gau-155903.chk"
 -------------------
 Title Card Required
 -------------------
 Charge = -1 Multiplicity = 1

                         Standard orientation:
 ---------------------------------------------------------------------
 Center     Atomic      Atomic             Coordinates (Angstroms)
 Number     Number       Type             X           Y           Z
 ---------------------------------------------------------------------
      1          7           0        1.166620   -0.020032    0.000352
      2          7           0        0.430469    1.089012   -0.000260
      3          6           0       -0.865260    0.707676    0.000033
      4          6           0       -0.889546   -0.677476    0.000094
      5          7           0        0.392298   -1.103034   -0.000260
      6          1           0       -1.674682    1.423719    0.000299
      7          1           0       -1.722192   -1.366547    0.000119
 ---------------------------------------------------------------------

 SCF Done:  E(RM062X) =  -241.688728188     A.U. after    1 cycles

 The electronic state is 1-A.
 Alpha  occ. eigenvalues --  -14.77604 -14.75329 -14.75322 -10.53974 -10.53893
 Alpha  occ. eigenvalues --   -1.15187  -0.93161  -0.84994  -0.65395  -0.62602
 Alpha  occ. eigenvalues --   -0.55170  -0.49246  -0.47351  -0.38386  -0.32123
 Alpha  occ. eigenvalues --   -0.31520  -0.30897  -0.28070
 Alpha virt. eigenvalues --    0.03577   0.04793   0.06141   0.06734   0.08395
 Alpha virt. eigenvalues --    0.08574   0.09749   0.10134   0.11207   0.14644
 Alpha virt. eigenvalues --    0.15261   0.15595   0.18162   0.18436   0.22444

 Mulliken charges:
               1
     1  N   -0.189054
     2  N   -0.385033
     3  C   -0.201304
     4  C   -0.201008
     5  N   -0.385154
     6  H    0.180680
     7  H    0.180873
 Sum of Mulliken charges =  -1.00000

 Dipole moment (field-independent basis, Debye):
    X=             -5.6221    Y=              0.0959    Z=              0.0007  Tot=              5.6229
 Quadrupole moment (field-independent basis, Debye-Ang):
   XX=            -35.7579   YY=            -39.4663   ZZ=            -33.2494
   XY=             -0.0587   XZ=             -0.0015   YZ=              0.0004

  Exact polarizability:      76.856      -0.007      76.723      -0.001      -0.001      44.432
 Approx polarizability:      68.543       0.008      68.474      -0.000      -0.001      39.437

                      1                      2                      3
                      A                      A                      A
 Frequencies --    682.8149               756.2608               811.3157
 Red. masses --      3.8435                12.9155                 1.1864
 Frc consts  --      1.0558                 4.3522                 0.4601
 IR Inten    --      0.0042                 1.7284               114.5336

                      4                      5                      6
                      A                      A                      A
 Frequencies --    875.0994               968.0986               983.3767
 Red. masses --      1.3527                 7.7495                 3.1591
 Frc consts  --      0.6103                 4.2792                 1.7999
 IR Inten    --      0.1268                17.8561                 7.3541

                      7                      8                      9
                      A                      A                      A
 Frequencies --   1112.2451              1124.2403              1217.1304
 Red. masses --      1.6497                 1.9215                10.4612
 Frc consts  --      1.2024                 1.4309                 9.1308
 IR Inten    --     16.9775                71.4092                24.8687

                     10                     11                     12
                      A                      A                      A
 Frequencies --   1232.9009              1270.8324              1467.9339
 Red. masses --      4.0632                10.2142                 3.5794
 Frc consts  --      3.6389                 9.7192                 4.5443
 IR Inten    --      8.9402                 4.0687                14.0598

                     13                     14                     15
                      A                      A                      A
 Frequencies --   1507.6557              3284.8093              3304.3407
 Red. masses --      4.1225                 1.0911                 1.1067
 Frc consts  --      5.5210                 6.9361                 7.1195
 IR Inten    --      1.7449                 2.9622                 7.2421

 - Thermochemistry -
 -------------------
 Temperature   298.150 Kelvin.  Pressure   1.00000 Atm.
 Atom     1 has atomic number  7 and mass  14.00307

 Molecular mass:    68.02487 amu.
 Principal axes and moments of inertia in atomic units:
                           1         2         3
     Eigenvalues --   171.17821 175.31439 346.49257
           X            0.02888   0.99958  -0.00002
           Y            0.99958  -0.02888   0.00001
           Z           -0.00000   0.00002   1.00000
 This molecule is an asymmetric top.
 Rotational symmetry number  1.
 Rotational temperatures (Kelvin)      0.50599     0.49405     0.24997
 Rotational constants (GHZ):          10.54305    10.29431     5.20860
 Zero-point vibrational energy     123209.7 (Joules/Mol)
                                   29.44783 (Kcal/Mol)
 Vibrational temperatures:    982.42  1088.09  1167.30  1259.07  1392.88
          (Kelvin)           1414.86  1600.27  1617.53  1751.18  1773.87
                             1828.44  2112.03  2169.18  4726.11  4754.21

 Zero-point correction=                           0.046928 (Hartree/Particle)
 Thermal correction to Energy=                    0.050288
 Thermal correction to Enthalpy=                  0.051232
 Thermal correction to Gibbs Free Energy=         0.020916
 Sum of electronic and zero-point Energies=           -241.641800
 Sum of electronic and thermal Energies=              -241.638441
 Sum of electronic and thermal Enthalpies=            -241.637496
 Sum of electronic and thermal Free Energies=         -241.667812

                     E (Thermal)             CV                S
                      KCal/Mol        Cal/Mol-Kelvin    Cal/Mol-Kelvin
 Total                   31.556             10.754             63.804
 Electronic               0.000              0.000              0.000
 Translational            0.889              2.981             38.570
 Rotational               0.889              2.981             23.857
 Vibrational             29.778              4.792              1.378

 Optimization completed.
    -- Stationary point found.

 1\1\GINC-NODE01\Freq\RM062X\6-31+G(d,p)\C2H2N3(1-)\GAU\02-Dec-2023\0\\
 #N Geom=AllCheck Guess=TCheck SCRF=Check GenChk RM062X/6-31+G(d,p) Fre
 q\\Title Card Required\\-1,1\N,-0.2723802496,-0.3544698325,0.335159003
 8\N,-1.1053242304,0.6629425543,0.1278579535\C,-2.2949919564,0.13675329
 39,-0.23566127\C,-2.1538329387,-1.2413852941,-0.2423943457\N,-0.881658
 3446,-1.5179708945,0.1171839209\H,-3.1513860629,0.7555677002,-0.462685
 5525\H,-2.8656032174,-2.0203985272,-0.4761417101\\Version=ES64L-G16Rev
 C.01\State=1-A\HF=-241.6887282\RMSD=3.437e-09\RMSF=1.582e-04\ZeroPoint

 Normal termination of Gaussian 16 at Sat Dec  2 05:20:35 2023.
