 Gaussian 16, Revision A.03,
 Gaussian 16:  ES64L-G16RevA.03 25-Dec-2016

 -----------------------------------------------------
 # opt freq 6-31+g(d,p) scrf=(smd,solvent=water) m062x
 -----------------------------------------------------

 -------------------
 Title Card Required
 -------------------
 Symbolic Z-matrix:
 Charge =  0 Multiplicity = 1

 SCF Done:  E(RM062X) =  -523.087121269     A.U. after   14 cycles
 SCF Done:  E(RM062X) =  -523.114698898     A.U. after   12 cycles
 SCF Done:  E(RM062X) =  -523.117713540     A.U. after   12 cycles
 SCF Done:  E(RM062X) =  -523.056507703     A.U. after   15 cycles
 SCF Done:  E(RM062X) =  -523.113128100     A.U. after   13 cycles
 SCF Done:  E(RM062X) =  -523.118869820     A.U. after   12 cycles
 SCF Done:  E(RM062X) =  -523.119578044     A.U. after   12 cycles
 SCF Done:  E(RM062X) =  -523.120610624     A.U. after   12 cycles
 SCF Done:  E(RM062X) =  -523.120685332     A.U. after   15 cycles
 SCF Done:  E(RM062X) =  -523.120821082     A.U. after   15 cycles
 SCF Done:  E(RM062X) =  -523.123462991     A.U. after   10 cycles
 SCF Done:  E(RM062X) =  -523.123463357     A.U. after    9 cycles
 SCF Done:  E(RM062X) =  -523.123447585     A.U. after   11 cycles
 SCF Done:  E(RM062X) =  -523.123464939     A.U. after   11 cycles
 SCF Done:  E(RM062X) =  -523.123465735     A.U. after    9 cycles
 SCF Done:  E(RM062X) =  -523.123466392     A.U. after    9 cycles
 SCF Done:  E(RM062X) =  -523.123466632     A.U. after    9 cycles
 SCF Done:  E(RM062X) =  -523.123467146     A.U. after    8 cycles
 SCF Done:  E(RM062X) =  -523.123467182     A.U. after    8 cycles
 Optimization completed.
    -- Stationary point found.
 Normal termination of Gaussian 16 at Sun Nov  5 11:29:37 2023.

 ----------------------------------------------------------------------
 #N Geom=AllCheck Guess=TCheck SCRF=Check GenChk RM062X/6-31+G(d,p) Fre
 q
 ----------------------------------------------------------------------

 Structure from the checkpoint file:  "/scratch/gongke2021/sidanzuo-2/Gau-16797.chk"
 -------------------
 Title Card Required
 -------------------
 Charge =  0 Multiplicity = 1

                         Standard orientation:
 ---------------------------------------------------------------------
 Center     Atomic      Atomic             Coordinates (Angstroms)
 Number     Number       Type             X           Y           Z
 ---------------------------------------------------------------------
      1          7           0        1.042717    0.537759    0.013661
      2          7           0        0.469406   -0.663471   -0.030840
      3          7           0        1.422097   -1.531268   -0.036186
      4          7           0        2.623168   -0.923448    0.003382
      5          6           0        2.366570    0.371294    0.033971
      6          6           0       -2.307874   -0.703332    0.007974
      7          8           0       -2.357705   -1.864901    0.002550
      8          8           0       -2.298859    0.460373    0.014321
      9          1           0        0.472596    1.410718    0.022485
     10          1           0        3.086074    1.174231    0.069717
     11          8           0       -0.487376    2.833581    0.074628
     12          1           0       -0.258091    3.461946   -0.623715
     13          1           0       -1.402950    2.575906   -0.102265
 ---------------------------------------------------------------------

 SCF Done:  E(RM062X) =  -523.123467182     A.U. after    1 cycles

 The electronic state is 1-A.
 Alpha  occ. eigenvalues --  -19.72903 -19.72855 -19.66292 -14.85825 -14.84836
 Alpha  occ. eigenvalues --  -14.83610 -14.80111 -10.75305 -10.63060  -1.29053
 Alpha  occ. eigenvalues --   -1.27181  -1.24090  -1.14542  -1.05529  -0.99798
 Alpha  occ. eigenvalues --   -0.75679  -0.74776  -0.66688  -0.66261  -0.62067
 Alpha  occ. eigenvalues --   -0.60260  -0.59985  -0.59863  -0.58090  -0.55903
 Alpha  occ. eigenvalues --   -0.49223  -0.46072  -0.44379  -0.44353  -0.41385
 Alpha  occ. eigenvalues --   -0.39392  -0.38745  -0.37678  -0.36870
 Alpha virt. eigenvalues --    0.01146   0.02387   0.03291   0.04118   0.04436
 Alpha virt. eigenvalues --    0.05563   0.05673   0.06009   0.08160   0.08475
 Alpha virt. eigenvalues --    0.08742   0.09134   0.09932   0.11959   0.14066

 Mulliken charges:
               1
     1  N   -0.432439
     2  N    0.106352
     3  N   -0.235997
     4  N   -0.308878
     5  C    0.052546
     6  C    0.835348
     7  O   -0.382908
     8  O   -0.421321
     9  H    0.474170
    10  H    0.262030
    11  O   -0.840362
    12  H    0.442837
    13  H    0.448624
 Sum of Mulliken charges =  -0.00000

 Dipole moment (field-independent basis, Debye):
    X=             -2.1542    Y=              9.1456    Z=             -1.7646  Tot=              9.5602
 Quadrupole moment (field-independent basis, Debye-Ang):
   XX=            -51.4201   YY=            -51.0975   ZZ=            -50.4677
   XY=              8.0478   XZ=              1.0842   YZ=             -6.7526

  Exact polarizability:  81.346  -0.523 103.527   0.414   0.387  50.625
 Approx polarizability:  76.412  -0.565 101.298   0.377   0.262  47.723

                      1                      2                      3
                      A                      A                      A
 Frequencies --     26.5041                28.4129                40.6925
 Red. masses --      9.7548                 8.0077                 7.8376
 Frc consts  --      0.0040                 0.0038                 0.0076
 IR Inten    --      7.8087                 2.8839                13.1365

                      4                      5                      6
                      A                      A                      A
 Frequencies --     89.9393                94.0272               103.1676
 Red. masses --      8.9624                 5.8806                 6.9225
 Frc consts  --      0.0427                 0.0306                 0.0434
 IR Inten    --      2.5769                 7.5935                 4.4930

                      7                      8                      9
                      A                      A                      A
 Frequencies --    141.7489               171.1911               193.5816
 Red. masses --      8.9779                 7.3382                 1.0345
 Frc consts  --      0.1063                 0.1267                 0.0228
 IR Inten    --      8.2048                34.3256               119.0345

                     10                     11                     12
                      A                      A                      A
 Frequencies --    310.3792               378.0097               641.4526
 Red. masses --      1.1812                 1.1043                12.8384
 Frc consts  --      0.0670                 0.0930                 3.1124
 IR Inten    --    452.1698                54.3986               102.6743

                     13                     14                     15
                      A                      A                      A
 Frequencies --    663.1851               682.0178               754.2021
 Red. masses --     12.8280                 4.1671                12.3777
 Frc consts  --      3.3241                 1.1420                 4.1483
 IR Inten    --     58.1450                17.8027                 0.7372

                     16                     17                     18
                      A                      A                      A
 Frequencies --    907.3087               956.7368              1012.6746
 Red. masses --      1.3872                 1.0753                 7.2646
 Frc consts  --      0.6728                 0.5799                 4.3893
 IR Inten    --     66.9067               141.3672                32.4151

                     19                     20                     21
                      A                      A                      A
 Frequencies --   1029.6876              1152.8457              1156.0515
 Red. masses --      4.2430                 7.5494                 2.1621
 Frc consts  --      2.6505                 5.9116                 1.7025
 IR Inten    --      0.1038                28.9338                69.6796

                     22                     23                     24
                      A                      A                      A
 Frequencies --   1202.0053              1335.3695              1365.2699
 Red. masses --      2.4293                 3.1784                 7.1048
 Frc consts  --      2.0679                 3.3394                 7.8026
 IR Inten    --     24.7852                10.5949                49.6156

                     25                     26                     27
                      A                      A                      A
 Frequencies --   1406.7561              1525.2202              1573.9091
 Red. masses --     15.9807                 4.1841                 1.3599
 Frc consts  --     18.6330                 5.7348                 1.9848
 IR Inten    --      0.9926                 6.0447               118.6807

                     28                     29                     30
                      A                      A                      A
 Frequencies --   1583.9966              2380.4047              3047.7007
 Red. masses --      1.4914                12.8659                 1.1166
 Frc consts  --      2.2047                42.9528                 6.1107
 IR Inten    --    105.7716              1568.7605              2320.2087

                     31                     32                     33
                      A                      A                      A
 Frequencies --   3341.4109              3829.2430              3921.9452
 Red. masses --      1.1053                 1.0460                 1.0822
 Frc consts  --      7.2710                 9.0366                 9.8073
 IR Inten    --     24.8613                79.1479               265.0028

 - Thermochemistry -
 -------------------
 Temperature   298.150 Kelvin.  Pressure   1.00000 Atm.
 Atom     1 has atomic number  7 and mass  14.00307

 Molecular mass:   132.02834 amu.
 Principal axes and moments of inertia in atomic units:
                           1         2         3
     Eigenvalues --   971.952141655.988572624.18462
           X            1.00000  -0.00036   0.00112
           Y            0.00036   0.99996  -0.00860
           Z           -0.00112   0.00860   0.99996
 This molecule is an asymmetric top.
 Rotational symmetry number  1.
 Warning -- assumption of classical behavior for rotation
           may cause significant error
 Rotational temperatures (Kelvin)      0.08911     0.05230     0.03301
 Rotational constants (GHZ):           1.85682     1.08983     0.68773
 Zero-point vibrational energy     221590.6 (Joules/Mol)
                                   52.96141 (Kcal/Mol)
 Warning -- explicit consideration of  11 degrees of freedom as
           vibrations may cause significant error
 Vibrational temperatures:     38.13    40.88    58.55   129.40   135.28
          (Kelvin)            148.44   203.94   246.31   278.52   446.57
                              543.87   922.91   954.18   981.27  1085.13
                             1305.41  1376.53  1457.01  1481.49  1658.69
                             1663.30  1729.42  1921.30  1964.32  2024.01
                             2194.45  2264.50  2279.02  3424.87  4384.96
                             4807.54  5509.43  5642.80

 Zero-point correction=                           0.084399 (Hartree/Particle)
 Thermal correction to Energy=                    0.095393
 Thermal correction to Enthalpy=                  0.096338
 Thermal correction to Gibbs Free Energy=         0.044072
 Sum of electronic and zero-point Energies=           -523.039068
 Sum of electronic and thermal Energies=              -523.028074
 Sum of electronic and thermal Enthalpies=            -523.027130
 Sum of electronic and thermal Free Energies=         -523.079396

                     E (Thermal)             CV                S
                      KCal/Mol        Cal/Mol-Kelvin    Cal/Mol-Kelvin
 Total                   59.860             32.859            110.003
 Electronic               0.000              0.000              0.000
 Translational            0.889              2.981             40.546
 Rotational               0.889              2.981             29.825
 Vibrational             58.083             26.897             39.632
 Vibration     1          0.593              1.984              6.075
 Vibration     2          0.593              1.984              5.937
 Vibration     3          0.594              1.981              5.225
 Vibration     4          0.602              1.956              3.661
 Vibration     5          0.603              1.953              3.574
 Vibration     6          0.605              1.947              3.394
 Vibration     7          0.615              1.911              2.780
 Vibration     8          0.626              1.878              2.422
 Vibration     9          0.635              1.849              2.193
 Vibration    10          0.699              1.654              1.360
 Vibration    11          0.748              1.517              1.047

                           ! Non-Optimized Parameters !
 Normal termination of Gaussian 16 at Sun Nov  5 11:31:14 2023.
