 Gaussian 16, Revision A.03,
 Gaussian 16:  ES64L-G16RevA.03 25-Dec-2016

 -----------------------------------------------------
 # opt freq 6-31+g(d,p) m062x scrf=(SMD,solvent=water)
 -----------------------------------------------------

 -------
 h2o-opt
 -------
 Symbolic Z-matrix:
 Charge =  0 Multiplicity = 1

 SCF Done:  E(RM062X) =  -507.090510953     A.U. after   14 cycles
 SCF Done:  E(RM062X) =  -507.090593999     A.U. after   12 cycles
 SCF Done:  E(RM062X) =  -507.090788691     A.U. after   11 cycles
 SCF Done:  E(RM062X) =  -507.080467361     A.U. after   14 cycles
 SCF Done:  E(RM062X) =  -507.090831236     A.U. after   12 cycles
 SCF Done:  E(RM062X) =  -507.091038089     A.U. after   11 cycles
 SCF Done:  E(RM062X) =  -507.091143333     A.U. after   11 cycles
 SCF Done:  E(RM062X) =  -507.091198374     A.U. after   11 cycles
 SCF Done:  E(RM062X) =  -507.091225019     A.U. after   11 cycles
 SCF Done:  E(RM062X) =  -507.091266484     A.U. after   11 cycles
 SCF Done:  E(RM062X) =  -507.091740301     A.U. after   10 cycles
 SCF Done:  E(RM062X) =  -507.091739576     A.U. after   10 cycles
 SCF Done:  E(RM062X) =  -507.091740720     A.U. after   10 cycles
 SCF Done:  E(RM062X) =  -507.091741302     A.U. after   10 cycles
 SCF Done:  E(RM062X) =  -507.091741729     A.U. after   10 cycles
 SCF Done:  E(RM062X) =  -507.091742084     A.U. after   10 cycles
 SCF Done:  E(RM062X) =  -507.091742276     A.U. after    9 cycles
 SCF Done:  E(RM062X) =  -507.091742333     A.U. after    9 cycles
 SCF Done:  E(RM062X) =  -507.091742505     A.U. after    9 cycles
 Optimization completed.
    -- Stationary point found.
 Normal termination of Gaussian 16 at Wed Jul  5 13:46:54 2023.

 ----------------------------------------------------------------------
 #N Geom=AllCheck Guess=TCheck SCRF=Check GenChk RM062X/6-31+G(d,p) Fre
 q
 ----------------------------------------------------------------------

 Structure from the checkpoint file:  "/scratch/gongke2021/1-H-Tz-RC/Gau-28579.chk"
 -------
 h2o-opt
 -------
 Charge =  0 Multiplicity = 1

                         Standard orientation:
 ---------------------------------------------------------------------
 Center     Atomic      Atomic             Coordinates (Angstroms)
 Number     Number       Type             X           Y           Z
 ---------------------------------------------------------------------
      1          7           0       -0.506773   -0.579583    0.224808
      2          7           0       -1.023061    0.627927    0.018664
      3          6           0       -2.350633    0.561994   -0.195303
      4          6           0       -2.635567   -0.781899   -0.110001
      5          7           0       -1.478541   -1.446512    0.148024
      6          1           0       -2.955793    1.434873   -0.383135
      7          1           0       -3.578449   -1.294462   -0.217419
      8          1           0       -0.407302    1.455983    0.047922
      9          6           0        2.217738   -0.842298   -0.107910
     10          8           0        2.282547    0.274476   -0.430144
     11          8           0        2.204314   -1.962146    0.204393
     12          8           0        0.793344    2.799189    0.122598
     13          1           0        0.727286    3.332185    0.926350
     14          1           0        1.642018    2.339660    0.190312
 ---------------------------------------------------------------------

 SCF Done:  E(RM062X) =  -507.091742505     A.U. after    1 cycles

 The electronic state is 1-A.
 Alpha  occ. eigenvalues --  -19.72804 -19.72745 -19.65860 -14.84614 -14.83006
 Alpha  occ. eigenvalues --  -14.79461 -10.75247 -10.59220 -10.57266  -1.28943
 Alpha  occ. eigenvalues --   -1.23982  -1.22282  -1.14058  -1.00752  -0.90647
 Alpha  occ. eigenvalues --   -0.72355  -0.70606  -0.66180  -0.64197  -0.61853
 Alpha  occ. eigenvalues --   -0.60121  -0.59856  -0.59555  -0.55031  -0.52450
 Alpha  occ. eigenvalues --   -0.51421  -0.48096  -0.44321  -0.44270  -0.41743
 Alpha  occ. eigenvalues --   -0.40662  -0.36702  -0.35547  -0.32173
 Alpha virt. eigenvalues --    0.01194   0.03047   0.03343   0.03705   0.05212
 Alpha virt. eigenvalues --    0.05661   0.05821   0.06798   0.07642   0.08328
 Alpha virt. eigenvalues --    0.08528   0.09011   0.09545   0.09828   0.11965

 Mulliken charges:
               1
     1  N   -0.115013
     2  N   -0.261091
     3  C   -0.129385
     4  C   -0.194432
     5  N   -0.267365
     6  H    0.246665
     7  H    0.217754
     8  H    0.453160
     9  C    0.837368
    10  O   -0.432115
    11  O   -0.387695
    12  O   -0.864275
    13  H    0.445674
    14  H    0.450752
 Sum of Mulliken charges =  -0.00000

 Dipole moment (field-independent basis, Debye):
    X=             -0.3831    Y=              6.5808    Z=              1.0730  Tot=              6.6787
 Quadrupole moment (field-independent basis, Debye-Ang):
   XX=            -38.5244   YY=            -53.6244   ZZ=            -51.6280
   XY=             -0.6071   XZ=              3.6392   YZ=              8.8840

  Exact polarizability:  90.098   1.648 109.988   4.508  -7.913  59.446
 Approx polarizability:  81.741   0.945 105.151   4.252  -8.516  54.992

                      1                      2                      3
                      A                      A                      A
 Frequencies --     20.9075                28.5546                49.0869
 Red. masses --      7.3084                 9.1459                 5.7055
 Frc consts  --      0.0019                 0.0044                 0.0081
 IR Inten    --      9.8342                 8.9182                15.2382

                      4                      5                      6
                      A                      A                      A
 Frequencies --     77.0048                95.4077               102.9641
 Red. masses --      4.2540                 7.0383                 7.3762
 Frc consts  --      0.0149                 0.0377                 0.0461
 IR Inten    --     11.0456                 8.0626                 4.0639

                      7                      8                      9
                      A                      A                      A
 Frequencies --    141.0671               150.6133               169.5873
 Red. masses --      1.6312                 2.3560                 7.2307
 Frc consts  --      0.0191                 0.0315                 0.1225
 IR Inten    --     81.5835                69.3187                10.9463

                     10                     11                     12
                      A                      A                      A
 Frequencies --    267.5208               357.7495               634.9802
 Red. masses --      1.2005                 1.0824                12.8680
 Frc consts  --      0.0506                 0.0816                 3.0569
 IR Inten    --    345.0097               151.1278               116.6202

                     13                     14                     15
                      A                      A                      A
 Frequencies --    658.3668               664.9948               731.6006
 Red. masses --      3.6623                12.7969                 9.4662
 Frc consts  --      0.9353                 3.3342                 2.9852
 IR Inten    --      0.8614                56.7576                 7.3469

                     16                     17                     18
                      A                      A                      A
 Frequencies --    816.2133               894.2307               927.8163
 Red. masses --      1.2082                 1.2738                 1.1552
 Frc consts  --      0.4742                 0.6001                 0.5859
 IR Inten    --    148.2936                42.1399                91.7468

                     19                     20                     21
                      A                      A                      A
 Frequencies --    966.2918               988.9449              1104.9103
 Red. masses --      6.9138                 2.7525                 1.8558
 Frc consts  --      3.8035                 1.5861                 1.3349
 IR Inten    --      1.0263                 5.5007                47.8852

                     22                     23                     24
                      A                      A                      A
 Frequencies --   1139.8021              1205.3259              1234.8869
 Red. masses --      1.4169                 3.1364                 4.6817
 Frc consts  --      1.0845                 2.6846                 4.2064
 IR Inten    --     47.2042                51.8587                16.5541

                     25                     26                     27
                      A                      A                      A
 Frequencies --   1339.6731              1405.2301              1437.0114
 Red. masses --      9.1443                15.9882                 2.1565
 Frc consts  --      9.6694                18.6013                 2.6237
 IR Inten    --     42.4765                 1.5940                 5.7166

                     28                     29                     30
                      A                      A                      A
 Frequencies --   1510.0779              1575.3813              1601.3373
 Red. masses --      3.6978                 1.1026                 2.2144
 Frc consts  --      4.9681                 1.6123                 3.3457
 IR Inten    --      3.4687               171.0438                16.4434

                     31                     32                     33
                      A                      A                      A
 Frequencies --   2378.4091              3257.1694              3320.3431
 Red. masses --     12.8578                 1.1005                 1.0948
 Frc consts  --     42.8538                 6.8790                 7.1115
 IR Inten    --   1579.3232              1662.3905                 8.7567

                     34                     35                     36
                      A                      A                      A
 Frequencies --   3338.7423              3829.7759              3923.3758
 Red. masses --      1.1100                 1.0462                 1.0819
 Frc consts  --      7.2902                 9.0410                 9.8118
 IR Inten    --     12.5990                84.9663               262.7688

 - Thermochemistry -
 -------------------
 Temperature   298.150 Kelvin.  Pressure   1.00000 Atm.
 Atom     1 has atomic number  7 and mass  14.00307

 Molecular mass:   131.03309 amu.
 Principal axes and moments of inertia in atomic units:
                           1         2         3
     Eigenvalues --   985.679661644.478502582.55116
           X            0.99950   0.03101   0.00651
           Y           -0.03109   0.99943   0.01284
           Z           -0.00610  -0.01304   0.99990
 This molecule is an asymmetric top.
 Rotational symmetry number  1.
 Warning -- assumption of classical behavior for rotation
           may cause significant error
 Rotational temperatures (Kelvin)      0.08787     0.05267     0.03354
 Rotational constants (GHZ):           1.83096     1.09746     0.69882
 Zero-point vibrational energy     253281.5 (Joules/Mol)
                                   60.53572 (Kcal/Mol)
 Warning -- explicit consideration of  11 degrees of freedom as
           vibrations may cause significant error
 Vibrational temperatures:     30.08    41.08    70.63   110.79   137.27
          (Kelvin)            148.14   202.96   216.70   244.00   384.90
                              514.72   913.59   947.24   956.78  1052.61
                             1174.35  1286.60  1334.92  1390.28  1422.87
                             1589.72  1639.92  1734.20  1776.73  1927.49
                             2021.81  2067.54  2172.67  2266.62  2303.97
                             3422.00  4686.34  4777.23  4803.71  5510.19
                             5644.86

 Zero-point correction=                           0.096470 (Hartree/Particle)
 Thermal correction to Energy=                    0.107765
 Thermal correction to Enthalpy=                  0.108710
 Thermal correction to Gibbs Free Energy=         0.055718
 Sum of electronic and zero-point Energies=           -506.995273
 Sum of electronic and thermal Energies=              -506.983977
 Sum of electronic and thermal Enthalpies=            -506.983033
 Sum of electronic and thermal Free Energies=         -507.036024

                     E (Thermal)             CV                S
                      KCal/Mol        Cal/Mol-Kelvin    Cal/Mol-Kelvin
 Total                   67.624             34.117            111.530
 Electronic               0.000              0.000              0.000
 Translational            0.889              2.981             40.524
 Rotational               0.889              2.981             29.816
 Vibrational             65.846             28.155             41.190
 Vibration     1          0.593              1.986              6.546
 Vibration     2          0.593              1.984              5.927
 Vibration     3          0.595              1.978              4.854
 Vibration     4          0.599              1.964              3.966
 Vibration     5          0.603              1.952              3.546
 Vibration     6          0.605              1.947              3.397
 Vibration     7          0.615              1.912              2.789
 Vibration     8          0.618              1.902              2.664
 Vibration     9          0.625              1.880              2.440
 Vibration    10          0.673              1.733              1.612
 Vibration    11          0.733              1.559              1.132

                           ! Non-Optimized Parameters !
 Normal termination of Gaussian 16 at Wed Jul  5 13:47:51 2023.
