 Gaussian 16, Revision A.03,
 Gaussian 16:  ES64L-G16RevA.03 25-Dec-2016

 -----------------------------------------------------
 # opt freq 6-31+g(d,p) m062x scrf=(SMD,solvent=water)
 -----------------------------------------------------

 ----------
 "Sketch 2"
 ----------
 Symbolic Z-matrix:
 Charge =  0 Multiplicity = 1

 SCF Done:  E(RM062X) =  -430.309871112     A.U. after   16 cycles
 SCF Done:  E(RM062X) =  -430.435796827     A.U. after   15 cycles
 SCF Done:  E(RM062X) =  -430.630345041     A.U. after   14 cycles
 SCF Done:  E(RM062X) =  -430.643483698     A.U. after   14 cycles
 SCF Done:  E(RM062X) =  -430.668017740     A.U. after   15 cycles
 SCF Done:  E(RM062X) =  -430.660974019     A.U. after   15 cycles
 SCF Done:  E(RM062X) =  -430.655249683     A.U. after   13 cycles
 SCF Done:  E(RM062X) =  -430.640736759     A.U. after   13 cycles
 SCF Done:  E(RM062X) =  -430.669319031     A.U. after   10 cycles
 SCF Done:  E(RM062X) =  -430.673207228     A.U. after   13 cycles
 SCF Done:  E(RM062X) =  -430.675103812     A.U. after   11 cycles
 SCF Done:  E(RM062X) =  -430.675127958     A.U. after   11 cycles
 SCF Done:  E(RM062X) =  -430.675151667     A.U. after   11 cycles
 SCF Done:  E(RM062X) =  -430.675160866     A.U. after   10 cycles
 SCF Done:  E(RM062X) =  -430.675168785     A.U. after   10 cycles
 SCF Done:  E(RM062X) =  -430.675171167     A.U. after   10 cycles
 SCF Done:  E(RM062X) =  -430.675172482     A.U. after    9 cycles
 SCF Done:  E(RM062X) =  -430.675173297     A.U. after    9 cycles
 SCF Done:  E(RM062X) =  -430.675173521     A.U. after    9 cycles
 Optimization completed.
    -- Stationary point found.
 Normal termination of Gaussian 16 at Sat Jul  1 02:47:49 2023.

 ----------------------------------------------------------------------
 #N Geom=AllCheck Guess=TCheck SCRF=Check GenChk RM062X/6-31+G(d,p) Fre
 q
 ----------------------------------------------------------------------

 Structure from the checkpoint file:  "/scratch/gongke2021/1-H-Tz-RC/Gau-29187.chk"
 ----------
 "Sketch 2"
 ----------
 Charge =  0 Multiplicity = 1

                         Standard orientation:
 ---------------------------------------------------------------------
 Center     Atomic      Atomic             Coordinates (Angstroms)
 Number     Number       Type             X           Y           Z
 ---------------------------------------------------------------------
      1          7           0        0.350700   -0.353764    0.000766
      2          7           0        0.891061    0.862004    0.000626
      3          6           0        2.236684    0.807476   -0.000224
      4          6           0        2.508700   -0.540719   -0.000572
      5          7           0        1.327867   -1.215027    0.000059
      6          1           0        2.857560    1.689256   -0.000468
      7          1           0        3.458700   -1.051022   -0.001231
      8          1           0        0.288635    1.679743    0.001119
      9          6           0       -2.396970    0.042580   -0.000203
     10          8           0       -2.147328    1.179725   -0.000462
     11          8           0       -2.688019   -1.083035    0.000014
 ---------------------------------------------------------------------

 SCF Done:  E(RM062X) =  -430.675173521     A.U. after    1 cycles

 The electronic state is 1-A.
 Alpha  occ. eigenvalues --  -19.72861 -19.72831 -14.85827 -14.83563 -14.79865
 Alpha  occ. eigenvalues --  -10.75281 -10.59742 -10.57590  -1.29013  -1.24053
 Alpha  occ. eigenvalues --   -1.22938  -1.01519  -0.91195  -0.73152  -0.71220
 Alpha  occ. eigenvalues --   -0.65959  -0.64628  -0.60794  -0.59937  -0.59799
 Alpha  occ. eigenvalues --   -0.55603  -0.52546  -0.51347  -0.44347  -0.44314
 Alpha  occ. eigenvalues --   -0.41975  -0.37268  -0.35913  -0.32563
 Alpha virt. eigenvalues --    0.01101   0.02736   0.03196   0.03707   0.05323
 Alpha virt. eigenvalues --    0.05556   0.05822   0.06668   0.07961   0.08251
 Alpha virt. eigenvalues --    0.08857   0.08956   0.09558   0.09841   0.12344

 Mulliken charges:
               1
     1  N   -0.063183
     2  N   -0.244334
     3  C   -0.141753
     4  C   -0.164138
     5  N   -0.307801
     6  H    0.252129
     7  H    0.221260
     8  H    0.417525
     9  C    0.821269
    10  O   -0.397943
    11  O   -0.393031
 Sum of Mulliken charges =  -0.00000

 Dipole moment (field-independent basis, Debye):
    X=              2.6357    Y=              5.8675    Z=             -0.0005  Tot=              6.4323
 Quadrupole moment (field-independent basis, Debye-Ang):
   XX=            -35.4806   YY=            -46.6252   ZZ=            -45.7642
   XY=              3.2625   XZ=             -0.0037   YZ=              0.0053

  Exact polarizability:  80.935   5.630  98.073  -0.019  -0.001  47.144
 Approx polarizability:  75.158   5.937  97.105  -0.018  -0.001  44.109

                      1                      2                      3
                      A                      A                      A
 Frequencies --     28.7497                32.8495                69.8643
 Red. masses --      8.2807                 5.2940                 7.3543
 Frc consts  --      0.0040                 0.0034                 0.0211
 IR Inten    --     16.8122                 0.0695                13.4018

                      4                      5                      6
                      A                      A                      A
 Frequencies --    118.0146               151.7500               641.3167
 Red. masses --      8.8000                13.3060                12.9345
 Frc consts  --      0.0722                 0.1805                 3.1343
 IR Inten    --      1.0215                 2.0699               107.3469

                      7                      8                      9
                      A                      A                      A
 Frequencies --    649.7528               662.6257               695.4133
 Red. masses --      3.6938                12.7891                 1.5693
 Frc consts  --      0.9188                 3.3085                 0.4471
 IR Inten    --     16.4055                53.0075               142.5604

                     10                     11                     12
                      A                      A                      A
 Frequencies --    742.9946               823.5160               912.7546
 Red. masses --      2.8561                 1.1980                 1.3642
 Frc consts  --      0.9289                 0.4787                 0.6696
 IR Inten    --     41.9478                73.8302                 1.5015

                     13                     14                     15
                      A                      A                      A
 Frequencies --    964.9955               992.1631              1100.5642
 Red. masses --      6.3172                 2.6662                 2.0087
 Frc consts  --      3.4660                 1.5464                 1.4335
 IR Inten    --      5.2275                 1.7838                46.5557

                     16                     17                     18
                      A                      A                      A
 Frequencies --   1129.8833              1173.8316              1227.5396
 Red. masses --      1.3463                 2.2608                 5.3911
 Frc consts  --      1.0127                 1.8354                 4.7863
 IR Inten    --     91.3859                43.1742                 9.6102

                     19                     20                     21
                      A                      A                      A
 Frequencies --   1346.5709              1403.6524              1413.4812
 Red. masses --      8.9834                15.9878                 2.1745
 Frc consts  --      9.5973                18.5592                 2.5597
 IR Inten    --     43.6345                 1.0347                 7.3916

                     22                     23                     24
                      A                      A                      A
 Frequencies --   1499.0665              1582.1256              2377.6671
 Red. masses --      4.0542                 3.1253                12.8548
 Frc consts  --      5.3678                 4.6091                42.8172
 IR Inten    --      1.0140                23.3895              1546.1609

                     25                     26                     27
                      A                      A                      A
 Frequencies --   3325.2616              3343.1959              3618.1078
 Red. masses --      1.0950                 1.1100                 1.0858
 Frc consts  --      7.1336                 7.3098                 8.3743
 IR Inten    --      8.5676                11.7675               317.8377

 - Thermochemistry -
 -------------------
 Temperature   298.150 Kelvin.  Pressure   1.00000 Atm.
 Atom     1 has atomic number  7 and mass  14.00307

 Molecular mass:   113.02253 amu.
 Principal axes and moments of inertia in atomic units:
                           1         2         3
     Eigenvalues --   328.480381611.830771940.31096
           X            0.99999   0.00501  -0.00001
           Y           -0.00501   0.99999   0.00003
           Z            0.00001  -0.00003   1.00000
 This molecule is an asymmetric top.
 Rotational symmetry number  1.
 Rotational temperatures (Kelvin)      0.26368     0.05374     0.04464
 Rotational constants (GHZ):           5.49421     1.11968     0.93013
 Zero-point vibrational energy     191568.2 (Joules/Mol)
                                   45.78591 (Kcal/Mol)
 Warning -- explicit consideration of   5 degrees of freedom as
           vibrations may cause significant error
 Vibrational temperatures:     41.36    47.26   100.52   169.80   218.33
          (Kelvin)            922.71   934.85   953.37  1000.54  1069.00
                             1184.86  1313.25  1388.41  1427.50  1583.47
                             1625.65  1688.88  1766.16  1937.42  2019.54
                             2033.68  2156.82  2276.33  3420.93  4784.31
                             4810.11  5205.65

 Zero-point correction=                           0.072964 (Hartree/Particle)
 Thermal correction to Energy=                    0.080613
 Thermal correction to Enthalpy=                  0.081557
 Thermal correction to Gibbs Free Energy=         0.037612
 Sum of electronic and zero-point Energies=           -430.602209
 Sum of electronic and thermal Energies=              -430.594561
 Sum of electronic and thermal Enthalpies=            -430.593617
 Sum of electronic and thermal Free Energies=         -430.637562

                     E (Thermal)             CV                S
                      KCal/Mol        Cal/Mol-Kelvin    Cal/Mol-Kelvin
 Total                   50.585             23.406             92.490
 Electronic               0.000              0.000              0.000
 Translational            0.889              2.981             40.083
 Rotational               0.889              2.981             28.420
 Vibrational             48.808             17.444             23.987
 Vibration     1          0.593              1.984              5.914
 Vibration     2          0.594              1.983              5.649
 Vibration     3          0.598              1.968              4.157
 Vibration     4          0.608              1.934              3.133
 Vibration     5          0.619              1.901              2.650

 Optimization completed.
    -- Stationary point found.
 Normal termination of Gaussian 16 at Sat Jul  1 02:49:03 2023.
