 Gaussian 16, Revision A.03,
 Gaussian 16:  ES64L-G16RevA.03 25-Dec-2016

 ----------------------------------------------------------------------
 # opt=(calcfc,ts,noeigentest) freq 6-31+g(d,p) integral=grid=ultrafine
  m062x scrf=(SMD,solvent=water)
 ----------------------------------------------------------------------

 --
 TS
 --
 Symbolic Z-matrix:
 Charge = -1 Multiplicity = 2

 SCF Done:  E(UM062X) =  -583.509439547     A.U. after   18 cycles
 SCF Done:  E(UM062X) =  -583.532826491     A.U. after   16 cycles
 SCF Done:  E(UM062X) =  -583.553434369     A.U. after   17 cycles
 SCF Done:  E(UM062X) =  -583.568186092     A.U. after   16 cycles
 SCF Done:  E(UM062X) =  -583.575085071     A.U. after   17 cycles
 SCF Done:  E(UM062X) =  -583.579671415     A.U. after   15 cycles
 SCF Done:  E(UM062X) =  -583.581639003     A.U. after   15 cycles
 SCF Done:  E(UM062X) =  -583.582675372     A.U. after   15 cycles
 SCF Done:  E(UM062X) =  -583.583292628     A.U. after   15 cycles
 SCF Done:  E(UM062X) =  -583.583816536     A.U. after   15 cycles
 SCF Done:  E(UM062X) =  -583.584887293     A.U. after   15 cycles
 SCF Done:  E(UM062X) =  -583.585280251     A.U. after   14 cycles
 SCF Done:  E(UM062X) =  -583.585096204     A.U. after   15 cycles
 SCF Done:  E(UM062X) =  -583.585299379     A.U. after   14 cycles
 SCF Done:  E(UM062X) =  -583.585304240     A.U. after   14 cycles
 SCF Done:  E(UM062X) =  -583.585318421     A.U. after   13 cycles
 SCF Done:  E(UM062X) =  -583.585318039     A.U. after   10 cycles
 SCF Done:  E(UM062X) =  -583.585317716     A.U. after   10 cycles
 SCF Done:  E(UM062X) =  -583.585317994     A.U. after   10 cycles
 Optimization completed.
    -- Stationary point found.
 Normal termination of Gaussian 16 at Thu Jul  6 13:00:55 2023.

 ----------------------------------------------------------------------
 #N Geom=AllCheck Guess=TCheck SCRF=Check GenChk UM062X/6-31+G(d,p) Fre
 q
 ----------------------------------------------------------------------

 Structure from the checkpoint file:  "/scratch/gongke2021/TS-2/Gau-4454.chk"
 --
 TS
 --
 Charge = -1 Multiplicity = 2

                         Standard orientation:
 ---------------------------------------------------------------------
 Center     Atomic      Atomic             Coordinates (Angstroms)
 Number     Number       Type             X           Y           Z
 ---------------------------------------------------------------------
      1          7           0        0.795379    0.375314    0.039101
      2          7           0        0.512724   -0.899278    0.521754
      3          6           0        1.679676   -1.578706    0.294636
      4          6           0        2.603067   -0.730329   -0.271369
      5          7           0        2.083385    0.510452   -0.442579
      6          1           0        1.763423   -2.625510    0.549245
      7          1           0        3.621753   -0.939235   -0.565789
      8          1           0       -0.731294   -1.563654    0.176760
      9          6           0       -0.063758    1.448598    0.158966
     10          8           0       -1.210803    1.215757    0.719646
     11          8           0        0.310677    2.575692   -0.256245
     12          8           0       -2.918439   -0.053898   -0.478853
     13          1           0       -3.757007   -0.019141    0.005098
     14          1           0       -2.200826    0.564856    0.030251
     15          8           0       -1.662143   -2.050216   -0.094702
     16          1           0       -1.500006   -2.564444   -0.899224
     17          1           0       -2.404715   -1.094344   -0.336443
 ---------------------------------------------------------------------

 SCF Done:  E(UM062X) =  -583.585317994     A.U. after    1 cycles

 The electronic state is 2-A.
 Alpha  occ. eigenvalues --  -19.66591 -19.65505 -19.61120 -19.60313 -14.84083
 Alpha  occ. eigenvalues --  -14.77247 -14.76447 -10.67867 -10.55687 -10.55491
 Alpha  occ. eigenvalues --   -1.20241  -1.16907  -1.14491  -1.12620  -1.07642
 Alpha  occ. eigenvalues --   -0.96007  -0.91878  -0.74143  -0.67459  -0.64846
 Alpha  occ. eigenvalues --   -0.64226  -0.62810  -0.58733  -0.56109  -0.54549
 Alpha  occ. eigenvalues --   -0.52305  -0.51138  -0.49790  -0.47427  -0.46100
 Alpha  occ. eigenvalues --   -0.45258  -0.40769  -0.39423  -0.36842  -0.36343
 Alpha  occ. eigenvalues --   -0.36055  -0.34784  -0.33036  -0.32824  -0.15234
 Alpha virt. eigenvalues --    0.02690   0.04276   0.04734   0.05457   0.06896
 Alpha virt. eigenvalues --    0.07054   0.07371   0.09351   0.09726   0.10704
 Alpha virt. eigenvalues --    0.10941   0.11203   0.12354   0.14506   0.15837

  Beta  occ. eigenvalues --  -19.66586 -19.65482 -19.61064 -19.60179 -14.83944
  Beta  occ. eigenvalues --  -14.76790 -14.75937 -10.67798 -10.55617 -10.55507
  Beta  occ. eigenvalues --   -1.19623  -1.16808  -1.13934  -1.12441  -1.07309
  Beta  occ. eigenvalues --   -0.94463  -0.91084  -0.73248  -0.66976  -0.64744
  Beta  occ. eigenvalues --   -0.63523  -0.62689  -0.58242  -0.55364  -0.53192
  Beta  occ. eigenvalues --   -0.51979  -0.50809  -0.49365  -0.46958  -0.45214
  Beta  occ. eigenvalues --   -0.44797  -0.40712  -0.38456  -0.36562  -0.35079
  Beta  occ. eigenvalues --   -0.34631  -0.32662  -0.30703  -0.30563
  Beta virt. eigenvalues --    0.00355   0.02369   0.04234   0.04464   0.05058
  Beta virt. eigenvalues --    0.06706   0.06790   0.08080   0.08720   0.08970
  Beta virt. eigenvalues --    0.11010   0.11078   0.11639   0.12663   0.14669

 Mulliken charges and spin densities:
               1          2
     1  N   -0.061341   0.014786
     2  N   -0.486123   0.273543
     3  C   -0.149032   0.159106
     4  C   -0.204846  -0.025455
     5  N   -0.465741   0.380346
     6  H    0.202495  -0.006759
     7  H    0.195551  -0.000643
     8  H    0.509806   0.001862
     9  C    0.810258   0.105288
    10  O   -0.852100   0.019185
    11  O   -0.757035   0.062685
    12  O   -0.890980   0.002171
    13  H    0.471327  -0.000184
    14  H    0.554089   0.002905
    15  O   -0.912580   0.011550
    16  H    0.462165  -0.000616
    17  H    0.574086   0.000230
 Sum of Mulliken charges =  -1.00000   1.00000

 Dipole moment (field-independent basis, Debye):
    X=             -5.7254    Y=            -12.5383    Z=             -1.4766  Tot=             13.8626
 Quadrupole moment (field-independent basis, Debye-Ang):
   XX=            -56.3715   YY=            -83.0740   ZZ=            -67.4491
   XY=             -4.0862   XZ=              3.3763   YZ=              6.6680

  Exact polarizability: 151.981 -14.254 162.579 -14.580 -10.381  89.271
 Approx polarizability: 117.095  -3.633 123.038 -11.895  -8.845  77.529

 ******    1 imaginary frequencies (negative Signs) ******

                      1                      2                      3
                      A                      A                      A
 Frequencies --   -825.6405                51.0989                64.8870
 Red. masses --      1.1378                 4.8781                 7.3162
 Frc consts  --      0.4570                 0.0075                 0.0181
 IR Inten    --   2384.2392                 5.7131                 8.1358

                      4                      5                      6
                      A                      A                      A
 Frequencies --     82.0012               140.2084               152.8084
 Red. masses --      7.7774                 5.9496                 8.2305
 Frc consts  --      0.0308                 0.0689                 0.1132
 IR Inten    --      5.8335                 1.5504                 2.7182

                      7                      8                      9
                      A                      A                      A
 Frequencies --    270.4276               309.6341               437.1936
 Red. masses --      6.8740                 5.0441                 1.1459
 Frc consts  --      0.2962                 0.2849                 0.1290
 IR Inten    --     27.2305               460.7180               165.7212

                     10                     11                     12
                      A                      A                      A
 Frequencies --    442.2270               466.0108               482.7590
 Red. masses --      3.6067                 4.8448                 9.1430
 Frc consts  --      0.4156                 0.6199                 1.2555
 IR Inten    --    477.4761               115.6341                87.4806

                     13                     14                     15
                      A                      A                      A
 Frequencies --    530.7138               582.3281               612.0069
 Red. masses --      1.2688                 5.8737                 3.8270
 Frc consts  --      0.2106                 1.1735                 0.8445
 IR Inten    --    123.5337                82.5098                68.7279

                     16                     17                     18
                      A                      A                      A
 Frequencies --    635.7740               666.8405               698.1271
 Red. masses --      2.2588                 1.9707                 1.2190
 Frc consts  --      0.5379                 0.5163                 0.3500
 IR Inten    --     12.8145               285.0561               159.9597

                     19                     20                     21
                      A                      A                      A
 Frequencies --    750.2346               752.1442               797.1752
 Red. masses --      1.2079                 4.5459                11.6563
 Frc consts  --      0.4006                 1.5152                 4.3643
 IR Inten    --     99.7693                15.6580                23.3440

                     22                     23                     24
                      A                      A                      A
 Frequencies --    871.0419               904.7567               955.1348
 Red. masses --      1.2924                 5.6407                 7.4522
 Frc consts  --      0.5777                 2.7205                 4.0056
 IR Inten    --      6.4653                99.8430                49.7003

                     25                     26                     27
                      A                      A                      A
 Frequencies --   1042.7824              1111.2829              1122.1567
 Red. masses --      1.1470                 1.7744                 1.3700
 Frc consts  --      0.7349                 1.2910                 1.0165
 IR Inten    --    533.8063               728.7036                60.7930

                     28                     29                     30
                      A                      A                      A
 Frequencies --   1176.0247              1229.0003              1238.5054
 Red. masses --      5.4561                 8.7188                 1.6553
 Frc consts  --      4.4460                 7.7591                 1.4959
 IR Inten    --   1340.5146                68.8904               236.7003

                     31                     32                     33
                      A                      A                      A
 Frequencies --   1304.2627              1405.4281              1434.4454
 Red. masses --      2.6837                 2.4741                 4.8383
 Frc consts  --      2.6898                 2.8793                 5.8656
 IR Inten    --    186.3815              1091.5820              1677.3157

                     34                     35                     36
                      A                      A                      A
 Frequencies --   1488.2980              1528.4407              1543.2006
 Red. masses --      1.0810                 3.9275                 2.7067
 Frc consts  --      1.4108                 5.4058                 3.7978
 IR Inten    --    507.9511              1902.4666                31.8693

                     37                     38                     39
                      A                      A                      A
 Frequencies --   1564.6277              1633.2224              1746.0422
 Red. masses --      1.3718                 1.1699                 1.1293
 Frc consts  --      1.9787                 1.8386                 2.0285
 IR Inten    --    149.6415               651.4953              1959.0893

                     40                     41                     42
                      A                      A                      A
 Frequencies --   1793.7548              2034.4282              3287.6585
 Red. masses --      1.1099                 1.1488                 1.0895
 Frc consts  --      2.1041                 2.8015                 6.9385
 IR Inten    --   3312.6962              3077.4680                 1.7805

                     43                     44                     45
                      A                      A                      A
 Frequencies --   3307.0218              3849.3898              3853.5602
 Red. masses --      1.1061                 1.0652                 1.0657
 Frc consts  --      7.1270                 9.3000                 9.3239
 IR Inten    --      4.0486               240.9987               152.8731

 - Thermochemistry -
 -------------------
 Temperature   298.150 Kelvin.  Pressure   1.00000 Atm.
 Atom     1 has atomic number  7 and mass  14.00307

 Molecular mass:   149.04366 amu.
 Principal axes and moments of inertia in atomic units:
                           1         2         3
     Eigenvalues --  1132.014261647.684672611.71609
           X            0.99996  -0.00884   0.00215
           Y            0.00883   0.99994   0.00574
           Z           -0.00220  -0.00572   0.99998
 This molecule is an asymmetric top.
 Rotational symmetry number  1.
 Warning -- assumption of classical behavior for rotation
           may cause significant error
 Rotational temperatures (Kelvin)      0.07651     0.05257     0.03316
 Rotational constants (GHZ):           1.59427     1.09532     0.69102
    1 imaginary frequencies ignored.
 Zero-point vibrational energy     301154.3 (Joules/Mol)
                                   71.97761 (Kcal/Mol)
 Warning -- explicit consideration of  14 degrees of freedom as
           vibrations may cause significant error
 Vibrational temperatures:     73.52    93.36   117.98   201.73   219.86
          (Kelvin)            389.08   445.49   629.02   636.27   670.49
                              694.58   763.58   837.84   880.54   914.74
                              959.43  1004.45  1079.42  1082.17  1146.96
                             1253.24  1301.74  1374.23  1500.33  1598.89
                             1614.53  1692.04  1768.26  1781.93  1876.54
                             2022.10  2063.85  2141.33  2199.09  2220.32
                             2251.15  2349.84  2512.17  2580.81  2927.09
                             4730.21  4758.07  5538.41  5544.41

 Zero-point correction=                           0.114704 (Hartree/Particle)
 Thermal correction to Energy=                    0.124646
 Thermal correction to Enthalpy=                  0.125590
 Thermal correction to Gibbs Free Energy=         0.077714
 Sum of electronic and zero-point Energies=           -583.470614
 Sum of electronic and thermal Energies=              -583.460672
 Sum of electronic and thermal Enthalpies=            -583.459728
 Sum of electronic and thermal Free Energies=         -583.507604

                     E (Thermal)             CV                S
                      KCal/Mol        Cal/Mol-Kelvin    Cal/Mol-Kelvin
 Total                   78.217             36.159            100.765
 Electronic               0.000              0.000              1.377
 Translational            0.889              2.981             40.908
 Rotational               0.889              2.981             29.967
 Vibrational             76.439             30.197             28.513
 Vibration     1          0.595              1.977              4.774
 Vibration     2          0.597              1.971              4.303
 Vibration     3          0.600              1.961              3.842
 Vibration     4          0.615              1.913              2.801
 Vibration     5          0.619              1.900              2.637
 Vibration     6          0.674              1.728              1.593
 Vibration     7          0.699              1.655              1.364
 Vibration     8          0.798              1.389              0.835
 Vibration     9          0.802              1.378              0.820
 Vibration    10          0.823              1.325              0.749
 Vibration    11          0.839              1.288              0.703
 Vibration    12          0.886              1.182              0.586
 Vibration    13          0.939              1.070              0.481
 Vibration    14          0.971              1.006              0.429

 Optimization completed.
    -- Stationary point found.
 Normal termination of Gaussian 16 at Thu Jul  6 13:03:17 2023.
