 Gaussian 16, Revision A.03,
 Gaussian 16:  ES64L-G16RevA.03 25-Dec-2016

 ----------------------------------------------------------------------
 # opt=(calcfc,ts,noeigentest) freq 6-31+g(d,p) integral=grid=ultrafine
  m062x
 ----------------------------------------------------------------------

 -------------------
 Title Card Required
 -------------------
 Symbolic Z-matrix:
 Charge =  0 Multiplicity = 1

 SCF Done:  E(RM062X) =  -523.039765566     A.U. after   14 cycles
 SCF Done:  E(RM062X) =  -523.050070013     A.U. after   13 cycles
 SCF Done:  E(RM062X) =  -523.057208832     A.U. after   13 cycles
 SCF Done:  E(RM062X) =  -523.061556722     A.U. after   13 cycles
 SCF Done:  E(RM062X) =  -523.063830015     A.U. after   13 cycles
 SCF Done:  E(RM062X) =  -523.066348960     A.U. after   13 cycles
 SCF Done:  E(RM062X) =  -523.064851013     A.U. after   13 cycles
 SCF Done:  E(RM062X) =  -523.065098278     A.U. after   13 cycles
 SCF Done:  E(RM062X) =  -523.064872162     A.U. after   14 cycles
 SCF Done:  E(RM062X) =  -523.063866368     A.U. after   13 cycles
 SCF Done:  E(RM062X) =  -523.066271897     A.U. after   13 cycles
 SCF Done:  E(RM062X) =  -523.066736548     A.U. after   12 cycles
 SCF Done:  E(RM062X) =  -523.066783962     A.U. after   12 cycles
 SCF Done:  E(RM062X) =  -523.066801906     A.U. after   11 cycles
 SCF Done:  E(RM062X) =  -523.066800220     A.U. after   11 cycles
 SCF Done:  E(RM062X) =  -523.066801564     A.U. after   11 cycles
 SCF Done:  E(RM062X) =  -523.066802742     A.U. after   10 cycles
 SCF Done:  E(RM062X) =  -523.066804140     A.U. after   10 cycles
 SCF Done:  E(RM062X) =  -523.066805102     A.U. after   10 cycles
 Optimization completed.
    -- Stationary point found.
 Normal termination of Gaussian 16 at Mon Nov  6 13:20:45 2023.

 ----------------------------------------------------------------------
 #N Geom=AllCheck Guess=TCheck SCRF=Check GenChk RM062X/6-31+G(d,p) Fre
 q
 ----------------------------------------------------------------------

 Structure from the checkpoint file:  "/scratch/gongke2021/sidanzuo-TS/Gau-10838.chk"
 -------------------
 Title Card Required
 -------------------
 Charge =  0 Multiplicity = 1

                         Standard orientation:
 ---------------------------------------------------------------------
 Center     Atomic      Atomic             Coordinates (Angstroms)
 Number     Number       Type             X           Y           Z
 ---------------------------------------------------------------------
      1          7           0        0.623606   -0.922895   -0.000372
      2          7           0        0.337546    0.378623    0.008779
      3          7           0        1.418004    1.094300    0.005128
      4          7           0        2.452966    0.279851   -0.004217
      5          6           0        1.950849   -0.958172   -0.008539
      6          6           0       -1.193890    1.048910   -0.003211
      7          8           0       -1.129646    2.232264    0.037317
      8          8           0       -2.037343    0.144407   -0.051623
      9          1           0       -1.744968   -2.727665    0.701889
     10          1           0        2.533914   -1.865681   -0.018774
     11          8           0       -1.448048   -2.218587   -0.062437
     12          1           0       -0.353534   -1.768297    0.002619
     13          1           0       -1.881718   -1.256616   -0.066519
 ---------------------------------------------------------------------

 SCF Done:  E(RM062X) =  -523.066805102     A.U. after    1 cycles

 The electronic state is 1-A.
 Alpha  occ. eigenvalues --  -19.72525 -19.67083 -19.65674 -14.91363 -14.87844
 Alpha  occ. eigenvalues --  -14.87324 -14.82842 -10.73977 -10.66061  -1.31522
 Alpha  occ. eigenvalues --   -1.24153  -1.21995  -1.16019  -1.09185  -1.02856
 Alpha  occ. eigenvalues --   -0.79301  -0.78871  -0.73362  -0.71562  -0.64639
 Alpha  occ. eigenvalues --   -0.62544  -0.61533  -0.58240  -0.55536  -0.54681
 Alpha  occ. eigenvalues --   -0.52253  -0.49488  -0.43952  -0.42296  -0.41089
 Alpha  occ. eigenvalues --   -0.40219  -0.39351  -0.38860  -0.38401
 Alpha virt. eigenvalues --   -0.02532  -0.00817   0.02089   0.02360   0.03081
 Alpha virt. eigenvalues --    0.04458   0.05098   0.06257   0.07679   0.08588
 Alpha virt. eigenvalues --    0.09392   0.10039   0.12228   0.13059   0.13400

 Mulliken charges:
               1
     1  N   -0.347370
     2  N   -0.076156
     3  N   -0.071821
     4  N   -0.181474
     5  C    0.017758
     6  C    0.774365
     7  O   -0.401710
     8  O   -0.601865
     9  H    0.424588
    10  H    0.205826
    11  O   -0.801368
    12  H    0.527893
    13  H    0.531333
 Sum of Mulliken charges =  -0.00000

 Dipole moment (field-independent basis, Debye):
    X=              0.2450    Y=             -7.3613    Z=              1.4283  Tot=              7.5026
 Quadrupole moment (field-independent basis, Debye-Ang):
   XX=            -57.3330   YY=            -51.1700   ZZ=            -50.0027
   XY=              0.4763   XZ=             -2.8765   YZ=             -4.6493

  Exact polarizability:  78.595   0.238  76.533  -0.493  -0.469  37.454
 Approx polarizability:  90.761   4.042  98.947  -0.377  -0.195  47.974

 ******    1 imaginary frequencies (negative Signs) ******

                      1                      2                      3
                      A                      A                      A
 Frequencies --   -748.2013                68.3111                94.2812
 Red. masses --      1.3343                10.7894                 6.3954
 Frc consts  --      0.4401                 0.0297                 0.0335
 IR Inten    --    690.2954                 2.9700                 1.6787

                      4                      5                      6
                      A                      A                      A
 Frequencies --    144.1971               197.4484               274.2323
 Red. masses --      8.7803                 8.8252                10.8131
 Frc consts  --      0.1076                 0.2027                 0.4791
 IR Inten    --      1.0988                14.0631               102.3183

                      7                      8                      9
                      A                      A                      A
 Frequencies --    448.9099               469.9907               493.9766
 Red. masses --      6.4113                 1.7631                 3.0006
 Frc consts  --      0.7612                 0.2295                 0.4314
 IR Inten    --      7.3386                27.8024                43.8477

                     10                     11                     12
                      A                      A                      A
 Frequencies --    543.8440               617.0558               689.4473
 Red. masses --      1.9271                 1.3847                 4.9399
 Frc consts  --      0.3358                 0.3106                 1.3835
 IR Inten    --    422.4876               149.1783                14.4473

                     13                     14                     15
                      A                      A                      A
 Frequencies --    724.3149               742.7011               751.6706
 Red. masses --      6.7670                12.6350                 7.5748
 Frc consts  --      2.0917                 4.1063                 2.5216
 IR Inten    --      0.4513                22.3203               746.4406

                     16                     17                     18
                      A                      A                      A
 Frequencies --    909.3910              1042.0454              1097.8460
 Red. masses --      1.3831                 6.6138                 1.2245
 Frc consts  --      0.6739                 4.2313                 0.8696
 IR Inten    --     15.1339                 2.6553               778.1567

                     19                     20                     21
                      A                      A                      A
 Frequencies --   1142.7026              1185.7192              1238.5798
 Red. masses --      2.9610                 1.7805                10.6985
 Frc consts  --      2.2780                 1.4749                 9.6698
 IR Inten    --    295.0779                 3.5686               296.9893

                     22                     23                     24
                      A                      A                      A
 Frequencies --   1273.5461              1349.7795              1364.3534
 Red. masses --     10.4541                 7.1798                 8.6571
 Frc consts  --      9.9900                 7.7070                 9.4946
 IR Inten    --    100.3142               746.2952                 6.8524

                     25                     26                     27
                      A                      A                      A
 Frequencies --   1393.0138              1425.5514              1546.9435
 Red. masses --      2.1371                 1.7214                 5.2414
 Frc consts  --      2.4433                 2.0611                 7.3901
 IR Inten    --    119.6867               105.8975                19.1643

                     28                     29                     30
                      A                      A                      A
 Frequencies --   1610.2507              1802.4407              2071.3710
 Red. masses --      1.0797                 1.1181                 7.6224
 Frc consts  --      1.6495                 2.1401                19.2689
 IR Inten    --    798.6851               446.5182               930.9123

                     31                     32                     33
                      A                      A                      A
 Frequencies --   2495.7129              3327.8612              3908.5493
 Red. masses --      1.0894                 1.1021                 1.0658
 Frc consts  --      3.9978                 7.1911                 9.5929
 IR Inten    --   1708.0583                 2.4956               158.3285

 - Thermochemistry -
 -------------------
 Temperature   298.150 Kelvin.  Pressure   1.00000 Atm.
 Atom     1 has atomic number  7 and mass  14.00307

 Molecular mass:   132.02834 amu.
 Principal axes and moments of inertia in atomic units:
                           1         2         3
     Eigenvalues --   823.541051130.283381949.47032
           X            0.99935   0.03576  -0.00371
           Y           -0.03579   0.99933  -0.00798
           Z            0.00342   0.00811   0.99996
 This molecule is an asymmetric top.
 Rotational symmetry number  1.
 Warning -- assumption of classical behavior for rotation
           may cause significant error
 Rotational temperatures (Kelvin)      0.10517     0.07663     0.04443
 Rotational constants (GHZ):           2.19144     1.59672     0.92576
    1 imaginary frequencies ignored.
 Zero-point vibrational energy     217995.7 (Joules/Mol)
                                   52.10223 (Kcal/Mol)
 Warning -- explicit consideration of  10 degrees of freedom as
           vibrations may cause significant error
 Vibrational temperatures:     98.28   135.65   207.47   284.08   394.56
          (Kelvin)            645.88   676.21   710.72   782.47   887.81
                              991.96  1042.13  1068.58  1081.49  1308.41
                             1499.27  1579.56  1644.09  1705.99  1782.04
                             1832.35  1942.03  1963.00  2004.24  2051.05
                             2225.71  2316.79  2593.31  2980.24  3590.77
                             4788.05  5623.53

 Zero-point correction=                           0.083030 (Hartree/Particle)
 Thermal correction to Energy=                    0.090788
 Thermal correction to Enthalpy=                  0.091732
 Thermal correction to Gibbs Free Energy=         0.049631
 Sum of electronic and zero-point Energies=           -522.983775
 Sum of electronic and thermal Energies=              -522.976017
 Sum of electronic and thermal Enthalpies=            -522.975073
 Sum of electronic and thermal Free Energies=         -523.017174

                     E (Thermal)             CV                S
                      KCal/Mol        Cal/Mol-Kelvin    Cal/Mol-Kelvin
 Total                   56.970             27.071             88.609
 Electronic               0.000              0.000              0.000
 Translational            0.889              2.981             40.546
 Rotational               0.889              2.981             28.986
 Vibrational             55.193             21.110             19.077
 Vibration     1          0.598              1.969              4.201
 Vibration     2          0.603              1.953              3.569
 Vibration     3          0.616              1.909              2.747
 Vibration     4          0.637              1.843              2.157
 Vibration     5          0.677              1.721              1.569
 Vibration     6          0.808              1.363              0.799
 Vibration     7          0.827              1.317              0.738
 Vibration     8          0.850              1.263              0.673
 Vibration     9          0.899              1.153              0.557
 Vibration    10          0.977              0.996              0.421

                           ! Non-Optimized Parameters !
 Normal termination of Gaussian 16 at Mon Nov  6 13:21:34 2023.
