 Gaussian 16, Revision C.01,
 Gaussian 16:  ES64L-G16RevC.01  3-Jul-2019

 -----------------------------------------------------
 # opt freq 6-31+g(d,p) scrf=(SMD,solvent=water) m062x
 -----------------------------------------------------

 -------------------
 Title Card Required
 -------------------
 Symbolic Z-matrix:
 Charge =  0 Multiplicity = 1

 SCF Done:  E(RM062X) =  -523.110214182     A.U. after   14 cycles
 SCF Done:  E(RM062X) =  -523.108844452     A.U. after   12 cycles
 SCF Done:  E(RM062X) =  -523.111128670     A.U. after   12 cycles
 SCF Done:  E(RM062X) =  -523.111349401     A.U. after   12 cycles
 SCF Done:  E(RM062X) =  -523.110703208     A.U. after   13 cycles
 SCF Done:  E(RM062X) =  -523.111993838     A.U. after   12 cycles
 SCF Done:  E(RM062X) =  -523.112389595     A.U. after   12 cycles
 SCF Done:  E(RM062X) =  -523.111690586     A.U. after   12 cycles
 SCF Done:  E(RM062X) =  -523.112840920     A.U. after   11 cycles
 SCF Done:  E(RM062X) =  -523.112910104     A.U. after   11 cycles
 SCF Done:  E(RM062X) =  -523.112952042     A.U. after   11 cycles
 SCF Done:  E(RM062X) =  -523.112977601     A.U. after   10 cycles
 SCF Done:  E(RM062X) =  -523.112986827     A.U. after   10 cycles
 SCF Done:  E(RM062X) =  -523.112993794     A.U. after    9 cycles
 SCF Done:  E(RM062X) =  -523.112995753     A.U. after    9 cycles
 SCF Done:  E(RM062X) =  -523.112996133     A.U. after    8 cycles
 Optimization completed.
    -- Stationary point found.
 Normal termination of Gaussian 16 at Fri Nov 10 02:17:41 2023.

 ----------------------------------------------------------------------
 #N Geom=AllCheck Guess=TCheck SCRF=Check GenChk RM062X/6-31+G(d,p) Fre
 q
 ----------------------------------------------------------------------

 Structure from the checkpoint file:  "/home/Tinker/g16/scratch/Gau-3522046.chk"
 -------------------
 Title Card Required
 -------------------
 Charge =  0 Multiplicity = 1

                         Standard orientation:
 ---------------------------------------------------------------------
 Center     Atomic      Atomic             Coordinates (Angstroms)
 Number     Number       Type             X           Y           Z
 ---------------------------------------------------------------------
      1          7           0        0.311401   -1.056995   -0.092438
      2          7           0        0.502337    0.250935   -0.007912
      3          7           0        1.774349    0.600059    0.079796
      4          7           0        2.453199   -0.500960    0.055198
      5          6           0        1.545186   -1.506222   -0.050769
      6          6           0       -0.557975    1.249377   -0.016479
      7          8           0       -0.240099    2.413841    0.011336
      8          8           0       -1.755503    0.781923   -0.060001
      9          1           0       -3.203594   -1.666371    0.644382
     10          1           0        1.806462   -2.551623   -0.096273
     11          8           0       -2.509301   -1.552238   -0.021801
     12          1           0       -1.804274   -2.178296    0.201866
     13          1           0       -1.971633   -0.262113   -0.025266
 ---------------------------------------------------------------------

 SCF Done:  E(RM062X) =  -523.112996133     A.U. after    1 cycles

 The electronic state is 1-A.
 Alpha  occ. eigenvalues --  -19.69549 -19.68364 -19.66600 -14.91779 -14.87371
 Alpha  occ. eigenvalues --  -14.84205 -14.82634 -10.75676 -10.63010  -1.31337
 Alpha  occ. eigenvalues --   -1.25539  -1.18047  -1.16091  -1.09108  -1.01816
 Alpha  occ. eigenvalues --   -0.82211  -0.77009  -0.72991  -0.69634  -0.63734
 Alpha  occ. eigenvalues --   -0.62701  -0.58717  -0.56025  -0.54984  -0.53429
 Alpha  occ. eigenvalues --   -0.48902  -0.47766  -0.43702  -0.42194  -0.41409
 Alpha  occ. eigenvalues --   -0.41235  -0.40416  -0.38773  -0.37919
 Alpha virt. eigenvalues --   -0.03504   0.01592   0.03892   0.03988   0.04169
 Alpha virt. eigenvalues --    0.05569   0.06153   0.06464   0.08393   0.08958
 Alpha virt. eigenvalues --    0.09269   0.10488   0.12457   0.14111   0.15066

 Mulliken charges:
               1
     1  N   -0.300937
     2  N    0.012388
     3  N   -0.057832
     4  N   -0.290952
     5  C   -0.006620
     6  C    0.833591
     7  O   -0.524622
     8  O   -0.598099
     9  H    0.464910
    10  H    0.249431
    11  O   -0.809484
    12  H    0.464710
    13  H    0.563517
 Sum of Mulliken charges =  -0.00000

 Dipole moment (field-independent basis, Debye):
    X=             -4.2594    Y=             -9.7104    Z=              1.9111  Tot=             10.7743
 Quadrupole moment (field-independent basis, Debye-Ang):
   XX=            -52.5040   YY=            -52.6124   ZZ=            -50.0745
   XY=              4.3059   XZ=             -7.0080   YZ=             -3.8441

  Exact polarizability:      98.603      -2.461     103.637       1.078       1.332      49.964
 Approx polarizability:      90.512       0.763      93.936       1.234       1.385      47.898

                      1                      2                      3
                      A                      A                      A
 Frequencies --     29.0705                99.9603               149.1262
 Red. masses --      7.8872                10.2519                 4.8724
 Frc consts  --      0.0039                 0.0604                 0.0638
 IR Inten    --      0.9856                 4.4432                 7.4743

                      4                      5                      6
                      A                      A                      A
 Frequencies --    174.5804               206.8837               241.4567
 Red. masses --      8.4551                 1.2454                 3.3768
 Frc consts  --      0.1518                 0.0314                 0.1160
 IR Inten    --      2.1685                77.0185                50.5876

                      7                      8                      9
                      A                      A                      A
 Frequencies --    319.9401               443.7440               465.2509
 Red. masses --      6.6271                 4.5236                 1.1687
 Frc consts  --      0.3997                 0.5248                 0.1490
 IR Inten    --    166.5039                36.3272               401.6721

                     10                     11                     12
                      A                      A                      A
 Frequencies --    526.8952               591.5082               685.2015
 Red. masses --      2.2376                 2.3506                 7.9105
 Frc consts  --      0.3660                 0.4846                 2.1882
 IR Inten    --      8.6711                43.6779                45.6748

                     13                     14                     15
                      A                      A                      A
 Frequencies --    725.1330               754.5721               763.2183
 Red. masses --      5.3621                 8.3383                11.4015
 Frc consts  --      1.6612                 2.7973                 3.9130
 IR Inten    --      7.0314               337.1476                78.9909

                     16                     17                     18
                      A                      A                      A
 Frequencies --    934.6125              1021.0235              1063.2029
 Red. masses --      1.3940                10.0328                 9.1259
 Frc consts  --      0.7174                 6.1623                 6.0780
 IR Inten    --     20.5748                 8.4623               146.4136

                     19                     20                     21
                      A                      A                      A
 Frequencies --   1099.4770              1169.6010              1264.7623
 Red. masses --      1.0574                 1.8567                 6.2157
 Frc consts  --      0.7531                 1.4965                 5.8581
 IR Inten    --    308.1376                56.0386               238.5068

                     22                     23                     24
                      A                      A                      A
 Frequencies --   1315.1198              1327.7560              1345.3561
 Red. masses --      6.4625                 6.9965                 1.1449
 Frc consts  --      6.5854                 7.2672                 1.2209
 IR Inten    --    111.6272               415.7402              1651.3994

                     25                     26                     27
                      A                      A                      A
 Frequencies --   1383.9532              1422.0533              1566.0759
 Red. masses --      6.6309                10.9523                 5.0933
 Frc consts  --      7.4828                13.0493                 7.3600
 IR Inten    --     39.8853               302.0396                20.4004

                     28                     29                     30
                      A                      A                      A
 Frequencies --   1581.2869              1829.0262              2127.5546
 Red. masses --      1.0993                 7.6522                 1.1510
 Frc consts  --      1.6195                15.0826                 3.0695
 IR Inten    --    266.3128              1364.4584              2939.5640

                     31                     32                     33
                      A                      A                      A
 Frequencies --   3344.6445              3806.8160              3896.7286
 Red. masses --      1.1029                 1.0455                 1.0830
 Frc consts  --      7.2690                 8.9271                 9.6893
 IR Inten    --     10.3226               101.0083               328.4428

 - Thermochemistry -
 -------------------
 Temperature   298.150 Kelvin.  Pressure   1.00000 Atm.
 Atom     1 has atomic number  7 and mass  14.00307

 Molecular mass:   132.02834 amu.
 Principal axes and moments of inertia in atomic units:
                           1         2         3
     Eigenvalues --   810.535511207.977862012.85619
           X            0.99879   0.04848  -0.00771
           Y           -0.04853   0.99880  -0.00589
           Z            0.00741   0.00626   0.99995
 This molecule is an asymmetric top.
 Rotational symmetry number  1.
 Warning -- assumption of classical behavior for rotation
           may cause significant error
 Rotational temperatures (Kelvin)      0.10686     0.07170     0.04303
 Rotational constants (GHZ):           2.22660     1.49402     0.89661
 Zero-point vibrational energy     225350.1 (Joules/Mol)
                                   53.85996 (Kcal/Mol)
 Warning -- explicit consideration of  11 degrees of freedom as
           vibrations may cause significant error
 Vibrational temperatures:     41.83   143.82   214.56   251.18   297.66
          (Kelvin)            347.40   460.32   638.45   669.39   758.08
                              851.05   985.85  1043.30  1085.66  1098.10
                             1344.70  1469.03  1529.71  1581.90  1682.79
                             1819.71  1892.16  1910.34  1935.67  1991.20
                             2046.02  2253.23  2275.12  2631.56  3061.08
                             4812.20  5477.16  5606.52

 Zero-point correction=                           0.085831 (Hartree/Particle)
 Thermal correction to Energy=                    0.094483
 Thermal correction to Enthalpy=                  0.095427
 Thermal correction to Gibbs Free Energy=         0.051018
 Sum of electronic and zero-point Energies=           -523.027165
 Sum of electronic and thermal Energies=              -523.018513
 Sum of electronic and thermal Enthalpies=            -523.017569
 Sum of electronic and thermal Free Energies=         -523.061978

                     E (Thermal)             CV                S
                      KCal/Mol        Cal/Mol-Kelvin    Cal/Mol-Kelvin
 Total                   59.289             29.491             93.467
 Electronic               0.000              0.000              0.000
 Translational            0.889              2.981             40.546
 Rotational               0.889              2.981             29.068
 Vibrational             57.512             23.529             23.853
 Vibration     1          0.593              1.984              5.892
 Vibration     2          0.604              1.949              3.455
 Vibration     3          0.618              1.904              2.683
 Vibration     4          0.627              1.874              2.386
 Vibration     5          0.641              1.830              2.071
 Vibration     6          0.658              1.777              1.792
 Vibration     7          0.706              1.635              1.310
 Vibration     8          0.803              1.375              0.815
 Vibration     9          0.823              1.327              0.751
 Vibration    10          0.882              1.190              0.594
 Vibration    11          0.949              1.050              0.464

                           ! Non-Optimized Parameters !
 Normal termination of Gaussian 16 at Fri Nov 10 02:19:08 2023.
