 Gaussian 16, Revision C.01,
 Gaussian 16:  ES64L-G16RevC.01  3-Jul-2019

 -----------------------------------------------------
 # opt freq 6-31+g(d,p) scrf=(smd,solvent=water) m062x
 -----------------------------------------------------

 -------------------
 Title Card Required
 -------------------
 Symbolic Z-matrix:
 Charge =  0 Multiplicity = 1

 SCF Done:  E(RM062X) =  -469.966713907     A.U. after   14 cycles
 SCF Done:  E(RM062X) =  -469.966717862     A.U. after    9 cycles
 SCF Done:  E(RM062X) =  -469.966718503     A.U. after    9 cycles
 SCF Done:  E(RM062X) =  -469.966718873     A.U. after    7 cycles
 SCF Done:  E(RM062X) =  -469.966718899     A.U. after    8 cycles
 Optimization completed.
    -- Stationary point found.
 Normal termination of Gaussian 16 at Wed Nov 29 22:42:28 2023.

 ----------------------------------------------------------------------
 #N Geom=AllCheck Guess=TCheck SCRF=Check GenChk RM062X/6-31+G(d,p) Fre
 q
 ----------------------------------------------------------------------

 Structure from the checkpoint file:  "/home/gau/soft/scratch/Gau-21327.chk"
 -------------------
 Title Card Required
 -------------------
 Charge =  0 Multiplicity = 1

                         Standard orientation:
 ---------------------------------------------------------------------
 Center     Atomic      Atomic             Coordinates (Angstroms)
 Number     Number       Type             X           Y           Z
 ---------------------------------------------------------------------
      1          7           0       -0.252751   -0.368042    0.339992
      2          7           0       -1.117851    0.619847    0.124973
      3          6           0       -2.320442    0.134936   -0.244704
      4          6           0       -2.149467   -1.231081   -0.242675
      5          7           0       -0.869535   -1.497664    0.121083
      6          1           0       -3.159567    0.776888   -0.464427
      7          1           0       -2.855564   -2.013845   -0.470924
      8          6           0       -0.700767    2.010977    0.241558
      9          6           0        2.461409   -0.118670   -0.111125
     10          8           0        2.333121    0.992948   -0.429987
     11          8           0        2.636847   -1.226198    0.198656
     12          1           0       -0.265078    2.348886   -0.699692
     13          1           0        0.033362    2.086261    1.042444
     14          1           0       -1.576341    2.611857    0.482582
 ---------------------------------------------------------------------

 SCF Done:  E(RM062X) =  -469.966718899     A.U. after    1 cycles

 The electronic state is 1-A.
 Alpha  occ. eigenvalues --  -19.72626 -19.72618 -14.86344 -14.82941 -14.79502
 Alpha  occ. eigenvalues --  -10.75066 -10.59233 -10.58493 -10.57360  -1.28792
 Alpha  occ. eigenvalues --   -1.23824  -1.22779  -1.02806  -0.90980  -0.82941
 Alpha  occ. eigenvalues --   -0.71790  -0.67254  -0.65777  -0.61258  -0.60585
 Alpha  occ. eigenvalues --   -0.59763  -0.59636  -0.57325  -0.52466  -0.50406
 Alpha  occ. eigenvalues --   -0.48231  -0.47314  -0.44119  -0.44068  -0.41304
 Alpha  occ. eigenvalues --   -0.35591  -0.35299  -0.32164
 Alpha virt. eigenvalues --    0.01304   0.02205   0.03276   0.03574   0.05331
 Alpha virt. eigenvalues --    0.05613   0.05741   0.06391   0.06738   0.07228
 Alpha virt. eigenvalues --    0.08251   0.08806   0.09216   0.09709   0.10357

 Mulliken charges:
               1
     1  N   -0.187231
     2  N   -0.004279
     3  C   -0.091893
     4  C   -0.237300
     5  N   -0.262222
     6  H    0.251625
     7  H    0.218461
     8  C   -0.352812
     9  C    0.818987
    10  O   -0.405445
    11  O   -0.392676
    12  H    0.218973
    13  H    0.213294
    14  H    0.212519
 Sum of Mulliken charges =  -0.00000

 Dipole moment (field-independent basis, Debye):
    X=             -4.1178    Y=              5.6290    Z=             -0.9369  Tot=              7.0371
 Quadrupole moment (field-independent basis, Debye-Ang):
   XX=            -40.9422   YY=            -52.2095   ZZ=            -51.9359
   XY=             -1.6899   XZ=              1.6266   YZ=              3.2040

  Exact polarizability:      93.921      -0.944     119.732       8.930      -4.729      65.940
 Approx polarizability:      85.327      -2.844     111.112       8.689      -5.806      60.477

                      1                      2                      3
                      A                      A                      A
 Frequencies --     12.9111                25.9307                61.1708
 Red. masses --      6.2271                 8.6930                 5.6921
 Frc consts  --      0.0006                 0.0034                 0.0125
 IR Inten    --      5.9710                10.0301                 9.8445

                      4                      5                      6
                      A                      A                      A
 Frequencies --    103.6218               135.6996               139.5180
 Red. masses --      9.6329                 3.4819                 1.3195
 Frc consts  --      0.0609                 0.0378                 0.0151
 IR Inten    --      2.7024                 1.3454                 0.0129

                      7                      8                      9
                      A                      A                      A
 Frequencies --    231.8884               378.3181               634.8542
 Red. masses --      3.5034                 2.8846                12.8776
 Frc consts  --      0.1110                 0.2433                 3.0580
 IR Inten    --      4.8948                 9.2813               111.0810

                     10                     11                     12
                      A                      A                      A
 Frequencies --    652.9987               663.9112               701.0192
 Red. masses --      3.4463                12.8441                 4.5082
 Frc consts  --      0.8658                 3.3356                 1.3053
 IR Inten    --      1.0415                56.4504                10.4572

                     13                     14                     15
                      A                      A                      A
 Frequencies --    727.7280               815.9607               902.2806
 Red. masses --      9.0798                 1.2023                 1.3900
 Frc consts  --      2.8331                 0.4716                 0.6667
 IR Inten    --      2.0913               102.5039                 0.1655

                     16                     17                     18
                      A                      A                      A
 Frequencies --    973.4424              1076.0509              1084.8889
 Red. masses --      5.2242                 2.3103                 1.3596
 Frc consts  --      2.9167                 1.5761                 0.9428
 IR Inten    --      8.7332                 3.7272                 3.2018

                     19                     20                     21
                      A                      A                      A
 Frequencies --   1102.8442              1155.1305              1173.7150
 Red. masses --      1.9941                 1.3436                 2.0911
 Frc consts  --      1.4290                 1.0563                 1.6973
 IR Inten    --     54.5361                 2.6302                20.1268

                     22                     23                     24
                      A                      A                      A
 Frequencies --   1336.4817              1341.5359              1365.6800
 Red. masses --      8.0036                 6.6196                 2.8995
 Frc consts  --      8.4229                 7.0192                 3.1862
 IR Inten    --     47.5097                55.0740                10.3705

                     25                     26                     27
                      A                      A                      A
 Frequencies --   1404.0233              1454.9904              1475.9501
 Red. masses --     15.9853                 1.2508                 1.0511
 Frc consts  --     18.5660                 1.5601                 1.3491
 IR Inten    --      1.2787                 3.9590                25.2714

                     28                     29                     30
                      A                      A                      A
 Frequencies --   1483.8528              1548.6101              1560.9133
 Red. masses --      1.1662                 3.5292                 4.5033
 Frc consts  --      1.5129                 4.9867                 6.4646
 IR Inten    --     18.3685                14.0442                13.8548

                     31                     32                     33
                      A                      A                      A
 Frequencies --   2377.3416              3112.1089              3203.8762
 Red. masses --     12.8740                 1.0330                 1.1064
 Frc consts  --     42.8692                 5.8946                 6.6915
 IR Inten    --   1559.8021                20.4143                 4.0486

                     34                     35                     36
                      A                      A                      A
 Frequencies --   3222.9850              3317.7941              3334.1891
 Red. masses --      1.1076                 1.0944                 1.1099
 Frc consts  --      6.7785                 7.0980                 7.2695
 IR Inten    --      1.4696                11.3243                 5.9407

 - Thermochemistry -
 -------------------
 Temperature   298.150 Kelvin.  Pressure   1.00000 Atm.
 Atom     1 has atomic number  7 and mass  14.00307

 Molecular mass:   127.03818 amu.
 Principal axes and moments of inertia in atomic units:
                           1         2         3
     Eigenvalues --   632.114971629.979122189.80022
           X            0.99997  -0.00628   0.00512
           Y            0.00620   0.99987   0.01495
           Z           -0.00521  -0.01492   0.99988
 This molecule is an asymmetric top.
 Rotational symmetry number  1.
 Warning -- assumption of classical behavior for rotation
           may cause significant error
 Rotational temperatures (Kelvin)      0.13702     0.05314     0.03955
 Rotational constants (GHZ):           2.85508     1.10722     0.82416
 Zero-point vibrational energy     264938.2 (Joules/Mol)
                                   63.32176 (Kcal/Mol)
 Warning -- explicit consideration of   8 degrees of freedom as
           vibrations may cause significant error
 Vibrational temperatures:     18.58    37.31    88.01   149.09   195.24
          (Kelvin)            200.74   333.64   544.32   913.41   939.52
                              955.22  1008.61  1047.04  1173.99  1298.18
                             1400.57  1548.20  1560.91  1586.75  1661.98
                             1688.71  1922.90  1930.17  1964.91  2020.08
                             2093.41  2123.56  2134.93  2228.10  2245.81
                             3420.46  4477.63  4609.66  4637.16  4773.57
                             4797.15

 Zero-point correction=                           0.100910 (Hartree/Particle)
 Thermal correction to Energy=                    0.110219
 Thermal correction to Enthalpy=                  0.111163
 Thermal correction to Gibbs Free Energy=         0.062600
 Sum of electronic and zero-point Energies=           -469.865809
 Sum of electronic and thermal Energies=              -469.856500
 Sum of electronic and thermal Enthalpies=            -469.855556
 Sum of electronic and thermal Free Energies=         -469.904119

                     E (Thermal)             CV                S
                      KCal/Mol        Cal/Mol-Kelvin    Cal/Mol-Kelvin
 Total                   69.163             29.095            102.209
 Electronic               0.000              0.000              0.000
 Translational            0.889              2.981             40.431
 Rotational               0.889              2.981             29.202
 Vibrational             67.386             23.133             32.576
 Vibration     1          0.593              1.987              7.503
 Vibration     2          0.593              1.985              6.119
 Vibration     3          0.597              1.973              4.419
 Vibration     4          0.605              1.946              3.385
 Vibration     5          0.614              1.918              2.864
 Vibration     6          0.615              1.914              2.810
 Vibration     7          0.653              1.792              1.864
 Vibration     8          0.749              1.516              1.046

                           ! Non-Optimized Parameters !
 Normal termination of Gaussian 16 at Wed Nov 29 22:43:20 2023.
