 Gaussian 16, Revision C.01,
 Gaussian 16:  ES64L-G16RevC.01  3-Jul-2019

 -----------------------------------------------------
 # opt freq 6-31+g(d,p) scrf=(smd,solvent=water) m062x
 -----------------------------------------------------

 -------------------
 Title Card Required
 -------------------
 Symbolic Z-matrix:
 Charge =  0 Multiplicity = 1

 SCF Done:  E(RM062X) =  -446.658028184     A.U. after   14 cycles
 SCF Done:  E(RM062X) =  -446.679949219     A.U. after   13 cycles
 SCF Done:  E(RM062X) =  -446.686696471     A.U. after   13 cycles
 SCF Done:  E(RM062X) =  -446.690332267     A.U. after   12 cycles
 SCF Done:  E(RM062X) =  -446.690708862     A.U. after   12 cycles
 SCF Done:  E(RM062X) =  -446.690499792     A.U. after   12 cycles
 SCF Done:  E(RM062X) =  -446.690790456     A.U. after   11 cycles
 SCF Done:  E(RM062X) =  -446.690791726     A.U. after   11 cycles
 SCF Done:  E(RM062X) =  -446.690807740     A.U. after   11 cycles
 Optimization completed.
    -- Stationary point found.
 Normal termination of Gaussian 16 at Sun Oct 29 03:48:13 2023.

 ----------------------------------------------------------------------
 #N Geom=AllCheck Guess=TCheck SCRF=Check GenChk RM062X/6-31+G(d,p) Fre
 q
 ----------------------------------------------------------------------

 Structure from the checkpoint file:  "/home/Tinker/g16/scratch/Gau-1832279.chk"
 -------------------
 Title Card Required
 -------------------
 Charge =  0 Multiplicity = 1

                         Standard orientation:
 ---------------------------------------------------------------------
 Center     Atomic      Atomic             Coordinates (Angstroms)
 Number     Number       Type             X           Y           Z
 ---------------------------------------------------------------------
      1          7           0        0.757622    1.090051    0.000570
      2          7           0        0.069323   -0.043200    0.000087
      3          7           0        0.820695   -1.132496   -0.000444
      4          7           0        2.043255   -0.717966   -0.000334
      5          6           0        1.990703    0.642868    0.000163
      6          6           0       -1.368509   -0.104254    0.000046
      7          8           0       -1.936452   -1.159195    0.000500
      8          8           0       -1.952129    1.071321   -0.000473
      9          1           0       -1.322639    1.818277   -0.001159
     10          1           0        2.861865    1.278314    0.000532
 ---------------------------------------------------------------------

 SCF Done:  E(RM062X) =  -446.690807740     A.U. after    1 cycles

 The electronic state is 1-A.
 Alpha  occ. eigenvalues --  -19.73007 -19.68221 -14.92629 -14.88145 -14.84951
 Alpha  occ. eigenvalues --  -14.83244 -10.77105 -10.63606  -1.32465  -1.27578
 Alpha  occ. eigenvalues --   -1.19763  -1.10046  -1.02729  -0.83598  -0.77755
 Alpha  occ. eigenvalues --   -0.74347  -0.70460  -0.63693  -0.59541  -0.56917
 Alpha  occ. eigenvalues --   -0.56197  -0.52518  -0.49006  -0.43648  -0.43501
 Alpha  occ. eigenvalues --   -0.42066  -0.41885  -0.39441  -0.38582
 Alpha virt. eigenvalues --   -0.04492   0.01427   0.03800   0.03882   0.04298
 Alpha virt. eigenvalues --    0.05359   0.06131   0.06362   0.07496   0.09081
 Alpha virt. eigenvalues --    0.09684   0.10319   0.14227   0.14686   0.15870

 Mulliken charges:
               1
     1  N   -0.284451
     2  N   -0.014280
     3  N    0.075734
     4  N   -0.313476
     5  C   -0.012310
     6  C    0.787154
     7  O   -0.479322
     8  O   -0.478473
     9  H    0.464209
    10  H    0.255214
 Sum of Mulliken charges =  -0.00000

 Dipole moment (field-independent basis, Debye):
    X=              2.4070    Y=              6.1725    Z=             -0.0018  Tot=              6.6252
 Quadrupole moment (field-independent basis, Debye-Ang):
   XX=            -50.1094   YY=            -47.3289   ZZ=            -43.5626
   XY=              1.3661   XZ=              0.0064   YZ=             -0.0048

  Exact polarizability:      94.974       4.140      82.564      -0.004       0.002      40.813
 Approx polarizability:      84.543       2.757      82.146      -0.005       0.004      40.130

                      1                      2                      3
                      A                      A                      A
 Frequencies --    115.8162               170.4747               247.8352
 Red. masses --      9.2056                 8.7515                 8.0455
 Frc consts  --      0.0728                 0.1498                 0.2912
 IR Inten    --      0.6378                 3.0652                10.5687

                      4                      5                      6
                      A                      A                      A
 Frequencies --    452.9555               510.8661               554.4708
 Red. masses --      8.9308                 1.1106                 8.5879
 Frc consts  --      1.0796                 0.1708                 1.5556
 IR Inten    --      5.7545               232.0872                14.2762

                      7                      8                      9
                      A                      A                      A
 Frequencies --    683.7481               723.0614               752.4457
 Red. masses --      8.4803                 5.3746                 8.4803
 Frc consts  --      2.3359                 1.6556                 2.8289
 IR Inten    --     37.2959                 7.1560               123.7852

                     10                     11                     12
                      A                      A                      A
 Frequencies --    757.4384               945.9623              1015.0363
 Red. masses --     10.3119                 1.3783                10.6016
 Frc consts  --      3.4857                 0.7267                 6.4356
 IR Inten    --     17.7080                21.3590                35.6850

                     13                     14                     15
                      A                      A                      A
 Frequencies --   1049.2956              1164.5953              1235.2535
 Red. masses --      9.5137                 1.8722                 3.5458
 Frc consts  --      6.1716                 1.4961                 3.1877
 IR Inten    --    214.0276                66.8483                19.7336

                     16                     17                     18
                      A                      A                      A
 Frequencies --   1269.4413              1309.8947              1326.5010
 Red. masses --      3.2923                 2.6391                 3.3222
 Frc consts  --      3.1259                 2.6679                 3.4442
 IR Inten    --    133.6799               502.1735               482.3513

                     19                     20                     21
                      A                      A                      A
 Frequencies --   1384.7712              1433.4313              1571.8085
 Red. masses --      6.2496                 9.8944                 5.8447
 Frc consts  --      7.0609                11.9783                 8.5077
 IR Inten    --     12.2274               380.2037                 4.8386

                     22                     23                     24
                      A                      A                      A
 Frequencies --   1876.3519              3350.9597              3716.3284
 Red. masses --     10.5881                 1.1033                 1.0667
 Frc consts  --     21.9632                 7.2992                 8.6803
 IR Inten    --   1009.6909                14.0326               378.7066

 - Thermochemistry -
 -------------------
 Temperature   298.150 Kelvin.  Pressure   1.00000 Atm.
 Atom     1 has atomic number  7 and mass  14.00307

 Molecular mass:   114.01778 amu.
 Principal axes and moments of inertia in atomic units:
                           1         2         3
     Eigenvalues --   327.35988 989.060671316.42042
           X            0.99998   0.00696   0.00001
           Y           -0.00696   0.99998  -0.00002
           Z           -0.00001   0.00002   1.00000
 This molecule is an asymmetric top.
 Rotational symmetry number  1.
 Rotational temperatures (Kelvin)      0.26458     0.08757     0.06580
 Rotational constants (GHZ):           5.51302     1.82470     1.37095
 Zero-point vibrational energy     165196.8 (Joules/Mol)
                                   39.48298 (Kcal/Mol)
 Warning -- explicit consideration of   6 degrees of freedom as
           vibrations may cause significant error
 Vibrational temperatures:    166.63   245.28   356.58   651.70   735.02
          (Kelvin)            797.76   983.76  1040.32  1082.60  1089.78
                             1361.03  1460.41  1509.70  1675.59  1777.25
                             1826.44  1884.65  1908.54  1992.38  2062.39
                             2261.48  2699.65  4821.28  5346.97

 Zero-point correction=                           0.062920 (Hartree/Particle)
 Thermal correction to Energy=                    0.068825
 Thermal correction to Enthalpy=                  0.069769
 Thermal correction to Gibbs Free Energy=         0.032449
 Sum of electronic and zero-point Energies=           -446.627888
 Sum of electronic and thermal Energies=              -446.621983
 Sum of electronic and thermal Enthalpies=            -446.621039
 Sum of electronic and thermal Free Energies=         -446.658359

                     E (Thermal)             CV                S
                      KCal/Mol        Cal/Mol-Kelvin    Cal/Mol-Kelvin
 Total                   43.188             20.621             78.546
 Electronic               0.000              0.000              0.000
 Translational            0.889              2.981             40.109
 Rotational               0.889              2.981             27.546
 Vibrational             41.411             14.659             10.891
 Vibration     1          0.608              1.936              3.169
 Vibration     2          0.626              1.879              2.430
 Vibration     3          0.661              1.766              1.746
 Vibration     4          0.812              1.354              0.787
 Vibration     5          0.866              1.226              0.632
 Vibration     6          0.910              1.130              0.535

                           ! Non-Optimized Parameters !
 Normal termination of Gaussian 16 at Sun Oct 29 03:49:09 2023.
