 Gaussian 16, Revision C.01,
 Gaussian 16:  ES64L-G16RevC.01  3-Jul-2019

 -----------------------------------------------------
 # opt freq 6-31+g(d,p) scrf=(smd,solvent=water) m062x
 -----------------------------------------------------

 ----
 test
 ----
 Symbolic Z-matrix:
 Charge =  0 Multiplicity = 1

 SCF Done:  E(RM062X) =  -507.084859982     A.U. after   14 cycles
 SCF Done:  E(RM062X) =  -507.083558889     A.U. after   12 cycles
 SCF Done:  E(RM062X) =  -507.086544923     A.U. after   11 cycles
 SCF Done:  E(RM062X) =  -507.086581708     A.U. after   12 cycles
 SCF Done:  E(RM062X) =  -507.087141223     A.U. after   12 cycles
 SCF Done:  E(RM062X) =  -507.087687328     A.U. after   12 cycles
 SCF Done:  E(RM062X) =  -507.088349988     A.U. after   11 cycles
 SCF Done:  E(RM062X) =  -507.088705350     A.U. after   12 cycles
 SCF Done:  E(RM062X) =  -507.088794720     A.U. after   11 cycles
 SCF Done:  E(RM062X) =  -507.088781689     A.U. after   11 cycles
 SCF Done:  E(RM062X) =  -507.088853263     A.U. after   10 cycles
 SCF Done:  E(RM062X) =  -507.088857227     A.U. after   10 cycles
 SCF Done:  E(RM062X) =  -507.088860425     A.U. after   10 cycles
 SCF Done:  E(RM062X) =  -507.088864087     A.U. after    9 cycles
 SCF Done:  E(RM062X) =  -507.088867435     A.U. after   10 cycles
 SCF Done:  E(RM062X) =  -507.088868742     A.U. after   10 cycles
 SCF Done:  E(RM062X) =  -507.088869722     A.U. after   10 cycles
 SCF Done:  E(RM062X) =  -507.088870408     A.U. after   10 cycles
 SCF Done:  E(RM062X) =  -507.088870523     A.U. after    8 cycles
 Optimization completed.
    -- Stationary point found.
 Normal termination of Gaussian 16 at Thu Dec  7 08:26:52 2023.

 ----------------------------------------------------------------------
 #N Geom=AllCheck Guess=TCheck SCRF=Check GenChk RM062X/6-31+G(d,p) Fre
 q
 ----------------------------------------------------------------------

 Structure from the checkpoint file:  "/home/gau/soft/scratch/Gau-117006.chk"
 ----
 test
 ----
 Charge =  0 Multiplicity = 1

                         Standard orientation:
 ---------------------------------------------------------------------
 Center     Atomic      Atomic             Coordinates (Angstroms)
 Number     Number       Type             X           Y           Z
 ---------------------------------------------------------------------
      1          7           0        0.278334   -1.037522    0.039774
      2          7           0        0.500743    0.289317    0.003364
      3          6           0        1.834245    0.556558   -0.030677
      4          6           0        2.416094   -0.679264   -0.014633
      5          7           0        1.426132   -1.623747    0.029109
      6          1           0        2.222663    1.562090   -0.063187
      7          1           0        3.459678   -0.949497   -0.031724
      8          1           0       -1.777442   -2.153248    0.124176
      9          6           0       -0.557399    1.256608    0.007881
     10          8           0       -0.261414    2.432281    0.011441
     11          8           0       -1.767783    0.798105    0.010605
     12          1           0       -1.968325   -0.231139   -0.027011
     13          8           0       -2.509548   -1.567332   -0.121792
     14          1           0       -3.220718   -1.732376    0.514565
 ---------------------------------------------------------------------

 SCF Done:  E(RM062X) =  -507.088870523     A.U. after    1 cycles

 The electronic state is 1-A.
 Alpha  occ. eigenvalues --  -19.69268 -19.67766 -19.65998 -14.88014 -14.85295
 Alpha  occ. eigenvalues --  -14.81560 -10.74989 -10.61060 -10.58687  -1.27357
 Alpha  occ. eigenvalues --   -1.23109  -1.17335  -1.15465  -1.03980  -0.92579
 Alpha  occ. eigenvalues --   -0.79512  -0.73404  -0.71945  -0.66786  -0.63055
 Alpha  occ. eigenvalues --   -0.60085  -0.57568  -0.55462  -0.53393  -0.53201
 Alpha  occ. eigenvalues --   -0.51567  -0.47497  -0.44380  -0.42486  -0.41191
 Alpha  occ. eigenvalues --   -0.40280  -0.38257  -0.36498  -0.33825
 Alpha virt. eigenvalues --   -0.02073   0.01978   0.03766   0.04500   0.04602
 Alpha virt. eigenvalues --    0.05910   0.05991   0.06601   0.07591   0.09108
 Alpha virt. eigenvalues --    0.09683   0.10726   0.11828   0.12848   0.13106

 Mulliken charges:
               1
     1  N   -0.093667
     2  N   -0.151164
     3  C   -0.025080
     4  C   -0.266862
     5  N   -0.307246
     6  H    0.268605
     7  H    0.234413
     8  H    0.462418
     9  C    0.846130
    10  O   -0.549202
    11  O   -0.628675
    12  H    0.557914
    13  O   -0.808312
    14  H    0.460728
 Sum of Mulliken charges =  -0.00000

 Dipole moment (field-independent basis, Debye):
    X=              0.4093    Y=             -3.6987    Z=              1.6876  Tot=              4.0861
 Quadrupole moment (field-independent basis, Debye-Ang):
   XX=            -36.2332   YY=            -62.8987   ZZ=            -52.3888
   XY=             14.0957   XZ=             -5.8895   YZ=             -3.5678

  Exact polarizability:     105.882      -1.185     114.080      -1.032      -0.753      54.771
 Approx polarizability:      93.369       0.932     102.522      -1.049      -0.849      51.182

                      1                      2                      3
                      A                      A                      A
 Frequencies --     38.9158               108.4234               156.1733
 Red. masses --      5.9166                 8.3659                 5.4720
 Frc consts  --      0.0053                 0.0579                 0.0786
 IR Inten    --     30.8405                 4.5614                10.0865

                      4                      5                      6
                      A                      A                      A
 Frequencies --    166.2053               220.6951               249.5153
 Red. masses --      7.3796                 6.0473                 1.0362
 Frc consts  --      0.1201                 0.1735                 0.0380
 IR Inten    --      6.4225                35.1779               135.4492

                      7                      8                      9
                      A                      A                      A
 Frequencies --    296.9083               445.7648               450.1968
 Red. masses --      6.6230                 2.9322                 1.3066
 Frc consts  --      0.3440                 0.3433                 0.1560
 IR Inten    --    119.4096               229.5676               226.2871

                     10                     11                     12
                      A                      A                      A
 Frequencies --    523.0352               594.6517               627.9120
 Red. masses --      2.3146                 2.2124                 3.7728
 Frc consts  --      0.3731                 0.4609                 0.8764
 IR Inten    --      4.7795                40.1467                 0.8408

                     13                     14                     15
                      A                      A                      A
 Frequencies --    716.7066               767.4939               773.7165
 Red. masses --      8.2544                 9.1141                 8.1907
 Frc consts  --      2.4981                 3.1631                 2.8889
 IR Inten    --      0.1103               117.8792               178.6388

                     16                     17                     18
                      A                      A                      A
 Frequencies --    819.7563               920.4454               968.8352
 Red. masses --      1.2558                 1.3891                 5.2612
 Frc consts  --      0.4972                 0.6934                 2.9096
 IR Inten    --     74.4296                 0.8971                 2.9124

                     19                     20                     21
                      A                      A                      A
 Frequencies --   1051.1586              1070.0026              1078.4867
 Red. masses --      5.1843                 1.0742                 1.3581
 Frc consts  --      3.3750                 0.7246                 0.9307
 IR Inten    --    118.3963               293.1730               144.1496

                     22                     23                     24
                      A                      A                      A
 Frequencies --   1152.6126              1265.5198              1295.2596
 Red. masses --      1.9925                 6.7141                 4.9215
 Frc consts  --      1.5596                 6.3354                 4.8647
 IR Inten    --      6.8374                78.8111               219.5438

                     25                     26                     27
                      A                      A                      A
 Frequencies --   1342.0407              1352.7210              1419.0811
 Red. masses --      1.1739                 5.9841                 5.7335
 Frc consts  --      1.2457                 6.4516                 6.8028
 IR Inten    --   1344.0311               313.4556               356.2045

                     28                     29                     30
                      A                      A                      A
 Frequencies --   1490.1403              1579.5692              1580.4049
 Red. masses --      6.4251                 5.0821                 1.0811
 Frc consts  --      8.4059                 7.4708                 1.5909
 IR Inten    --    260.2003                 7.8970               284.3241

                     31                     32                     33
                      A                      A                      A
 Frequencies --   1801.0859              2330.4724              3330.1018
 Red. masses --      8.5614                 1.1186                 1.0947
 Frc consts  --     16.3631                 3.5795                 7.1526
 IR Inten    --   1108.8942              3145.2756                23.1787

                     34                     35                     36
                      A                      A                      A
 Frequencies --   3346.5563              3804.6421              3897.0033
 Red. masses --      1.1112                 1.0459                 1.0826
 Frc consts  --      7.3323                 8.9200                 9.6867
 IR Inten    --     19.6877                98.9277               324.5788

 - Thermochemistry -
 -------------------
 Temperature   298.150 Kelvin.  Pressure   1.00000 Atm.
 Atom     1 has atomic number  7 and mass  14.00307

 Molecular mass:   131.03309 amu.
 Principal axes and moments of inertia in atomic units:
                           1         2         3
     Eigenvalues --   842.926291197.028392035.98148
           X            0.99482   0.10148  -0.00636
           Y           -0.10151   0.99482  -0.00546
           Z            0.00577   0.00607   0.99996
 This molecule is an asymmetric top.
 Rotational symmetry number  1.
 Warning -- assumption of classical behavior for rotation
           may cause significant error
 Rotational temperatures (Kelvin)      0.10275     0.07236     0.04254
 Rotational constants (GHZ):           2.14104     1.50768     0.88642
 Zero-point vibrational energy     257389.8 (Joules/Mol)
                                   61.51763 (Kcal/Mol)
 Warning -- explicit consideration of  11 degrees of freedom as
           vibrations may cause significant error
 Vibrational temperatures:     55.99   156.00   224.70   239.13   317.53
          (Kelvin)            359.00   427.18   641.36   647.73   752.53
                              855.57   903.43  1031.18  1104.25  1113.21
                             1179.45  1324.32  1393.94  1512.38  1539.50
                             1551.70  1658.35  1820.80  1863.59  1930.90
                             1946.26  2041.74  2143.98  2272.65  2273.85
                             2591.36  3353.03  4791.27  4814.95  5474.03
                             5606.92

 Zero-point correction=                           0.098035 (Hartree/Particle)
 Thermal correction to Energy=                    0.106794
 Thermal correction to Enthalpy=                  0.107738
 Thermal correction to Gibbs Free Energy=         0.063501
 Sum of electronic and zero-point Energies=           -506.990836
 Sum of electronic and thermal Energies=              -506.982077
 Sum of electronic and thermal Enthalpies=            -506.981133
 Sum of electronic and thermal Free Energies=         -507.025370

                     E (Thermal)             CV                S
                      KCal/Mol        Cal/Mol-Kelvin    Cal/Mol-Kelvin
 Total                   67.014             30.622             93.105
 Electronic               0.000              0.000              0.000
 Translational            0.889              2.981             40.524
 Rotational               0.889              2.981             29.109
 Vibrational             65.236             24.660             23.472
 Vibration     1          0.594              1.981              5.314
 Vibration     2          0.606              1.942              3.297
 Vibration     3          0.620              1.896              2.596
 Vibration     4          0.624              1.884              2.478
 Vibration     5          0.647              1.810              1.953
 Vibration     6          0.662              1.764              1.734
 Vibration     7          0.691              1.679              1.434
 Vibration     8          0.805              1.370              0.809
 Vibration     9          0.809              1.360              0.795
 Vibration    10          0.878              1.199              0.603
 Vibration    11          0.952              1.043              0.459

 Optimization completed.
    -- Stationary point found.
 Normal termination of Gaussian 16 at Thu Dec  7 08:27:40 2023.
