 Gaussian 16, Revision A.03,
 Gaussian 16:  ES64L-G16RevA.03 25-Dec-2016

 -----------------------------------------------------
 # opt freq 6-31+g(d,p) scrf=(smd,solvent=water) m062x
 -----------------------------------------------------

 ----
 test
 ----
 Symbolic Z-matrix:
 Charge = -1 Multiplicity = 2

 SCF Done:  E(UM062X) =  -507.175545413     A.U. after   17 cycles
 SCF Done:  E(UM062X) =  -507.175564960     A.U. after   12 cycles
 SCF Done:  E(UM062X) =  -507.175588468     A.U. after   12 cycles
 SCF Done:  E(UM062X) =  -507.175593267     A.U. after   11 cycles
 SCF Done:  E(UM062X) =  -507.175603027     A.U. after   12 cycles
 SCF Done:  E(UM062X) =  -507.175622405     A.U. after   12 cycles
 SCF Done:  E(UM062X) =  -507.175637434     A.U. after   13 cycles
 SCF Done:  E(UM062X) =  -507.175658495     A.U. after   13 cycles
 SCF Done:  E(UM062X) =  -507.175697575     A.U. after   14 cycles
 SCF Done:  E(UM062X) =  -507.175719685     A.U. after   13 cycles
 SCF Done:  E(UM062X) =  -507.175722426     A.U. after   11 cycles
 SCF Done:  E(UM062X) =  -507.175710096     A.U. after   12 cycles
 SCF Done:  E(UM062X) =  -507.175723966     A.U. after   12 cycles
 SCF Done:  E(UM062X) =  -507.175724294     A.U. after   10 cycles
 SCF Done:  E(UM062X) =  -507.175733574     A.U. after   12 cycles
 SCF Done:  E(UM062X) =  -507.175735316     A.U. after   10 cycles
 SCF Done:  E(UM062X) =  -507.175736497     A.U. after   11 cycles
 SCF Done:  E(UM062X) =  -507.175737111     A.U. after   10 cycles
 SCF Done:  E(UM062X) =  -507.175736912     A.U. after    8 cycles
 Optimization completed.
    -- Stationary point found.
 Normal termination of Gaussian 16 at Wed Jul 12 14:03:20 2023.

 ----------------------------------------------------------------------
 #N Geom=AllCheck Guess=TCheck SCRF=Check GenChk UM062X/6-31+G(d,p) Fre
 q
 ----------------------------------------------------------------------

 Structure from the checkpoint file:  "/scratch/gongke2021/PC/Gau-28592.chk"
 ----
 test
 ----
 Charge = -1 Multiplicity = 2

                         Standard orientation:
 ---------------------------------------------------------------------
 Center     Atomic      Atomic             Coordinates (Angstroms)
 Number     Number       Type             X           Y           Z
 ---------------------------------------------------------------------
      1          7           0        0.124632   -1.031187   -0.080018
      2          7           0        0.463548    0.323435   -0.004500
      3          6           0        1.853532    0.448255    0.060396
      4          6           0        2.304097   -0.849811    0.025132
      5          7           0        1.280106   -1.722571   -0.056463
      6          1           0        2.343134    1.404986    0.122466
      7          1           0        3.328550   -1.193268    0.055388
      8          1           0       -1.530115   -1.724095    0.012017
      9          6           0       -0.431526    1.334520   -0.009697
     10          8           0       -0.090480    2.533300    0.037232
     11          8           0       -1.743869    1.015746   -0.076856
     12          1           0       -2.819153   -1.935123    0.867380
     13          8           0       -2.517576   -1.698009   -0.019232
     14          1           0       -1.941639    0.053683   -0.054520
 ---------------------------------------------------------------------

 SCF Done:  E(UM062X) =  -507.175736912     A.U. after    1 cycles

 The electronic state is 2-A.
 Alpha  occ. eigenvalues --  -19.67819 -19.64104 -19.62057 -14.84067 -14.79416
 Alpha  occ. eigenvalues --  -14.76587 -10.69719 -10.56472 -10.56144  -1.22959
 Alpha  occ. eigenvalues --   -1.16593  -1.12852  -1.11877  -1.00274  -0.88292
 Alpha  occ. eigenvalues --   -0.78084  -0.69271  -0.67840  -0.63891  -0.59425
 Alpha  occ. eigenvalues --   -0.56790  -0.53810  -0.52539  -0.49673  -0.49349
 Alpha  occ. eigenvalues --   -0.47547  -0.46517  -0.40430  -0.40160  -0.39009
 Alpha  occ. eigenvalues --   -0.37552  -0.36258  -0.34106  -0.32212  -0.15500
 Alpha virt. eigenvalues --    0.02772   0.04172   0.05263   0.05599   0.06492
 Alpha virt. eigenvalues --    0.06781   0.07348   0.08448   0.09953   0.10711
 Alpha virt. eigenvalues --    0.11404   0.12594   0.13985   0.14441   0.16229

  Beta  occ. eigenvalues --  -19.67760 -19.64106 -19.61832 -14.84074 -14.78870
  Beta  occ. eigenvalues --  -14.76301 -10.69565 -10.56285 -10.56198  -1.22476
  Beta  occ. eigenvalues --   -1.15774  -1.12607  -1.11542  -0.99426  -0.87350
  Beta  occ. eigenvalues --   -0.76949  -0.68888  -0.67433  -0.63272  -0.59315
  Beta  occ. eigenvalues --   -0.55163  -0.53232  -0.52256  -0.49189  -0.47563
  Beta  occ. eigenvalues --   -0.47451  -0.46319  -0.40180  -0.38534  -0.38259
  Beta  occ. eigenvalues --   -0.36923  -0.33740  -0.33262  -0.28934
  Beta virt. eigenvalues --    0.00074   0.02329   0.04027   0.04916   0.05073
  Beta virt. eigenvalues --    0.06313   0.07089   0.07893   0.08312   0.09993
  Beta virt. eigenvalues --    0.11046   0.12028   0.12507   0.13586   0.14167

 Mulliken charges and spin densities:
               1          2
     1  N   -0.294650   0.351056
     2  N   -0.165612  -0.057520
     3  C   -0.167332   0.321318
     4  C   -0.211014  -0.130454
     5  N   -0.500028   0.222030
     6  H    0.227612  -0.013513
     7  H    0.201143   0.003384
     8  H    0.460662  -0.004429
     9  C    0.747638   0.183070
    10  O   -0.718392   0.103113
    11  O   -0.610052   0.018165
    12  H    0.437659  -0.000213
    13  O   -0.860370   0.004375
    14  H    0.452736  -0.000383
 Sum of Mulliken charges =  -1.00000   1.00000

 Dipole moment (field-independent basis, Debye):
    X=              1.5154    Y=             -2.6380    Z=              2.3936  Tot=              3.8710
 Quadrupole moment (field-independent basis, Debye-Ang):
   XX=            -58.7382   YY=            -84.6136   ZZ=            -55.6875
   XY=              6.7747   XZ=             -5.8456   YZ=             -4.7526

  Exact polarizability: 135.194 -17.264 161.611   0.900   1.883  68.965
 Approx polarizability: 104.213  -6.512 123.440   0.715   1.517  60.315

                      1                      2                      3
                      A                      A                      A
 Frequencies --     29.7903                96.0855               129.2121
 Red. masses --      6.4696                 6.6848                 3.9146
 Frc consts  --      0.0034                 0.0364                 0.0385
 IR Inten    --     13.8432                30.5531                19.7325

                      4                      5                      6
                      A                      A                      A
 Frequencies --    149.5519               151.3047               238.8983
 Red. masses --      7.1740                 5.2563                 1.3180
 Frc consts  --      0.0945                 0.0709                 0.0443
 IR Inten    --     18.3109                40.5640               134.6852

                      7                      8                      9
                      A                      A                      A
 Frequencies --    254.2268               317.7952               454.4086
 Red. masses --      5.7455                 1.0844                 8.0232
 Frc consts  --      0.2188                 0.0645                 0.9761
 IR Inten    --     85.2549               185.7306                21.8853

                     10                     11                     12
                      A                      A                      A
 Frequencies --    463.7882               551.1319               571.8847
 Red. masses --     10.6157                 5.8402                 1.2597
 Frc consts  --      1.3454                 1.0452                 0.2427
 IR Inten    --     37.2167                11.0115                11.8226

                     13                     14                     15
                      A                      A                      A
 Frequencies --    580.5198               619.9559               661.1494
 Red. masses --      1.4483                 4.9765                 2.8378
 Frc consts  --      0.2876                 1.1269                 0.7309
 IR Inten    --    355.3983                 3.3516                17.6567

                     16                     17                     18
                      A                      A                      A
 Frequencies --    720.6259               807.8830               892.6443
 Red. masses --      3.4584                 1.3828                 1.2713
 Frc consts  --      1.0581                 0.5318                 0.5968
 IR Inten    --    143.7165               403.6412                22.4419

                     19                     20                     21
                      A                      A                      A
 Frequencies --    916.7431               955.7899              1049.4353
 Red. masses --      5.0091                 5.3765                 2.3782
 Frc consts  --      2.4803                 2.8939                 1.5431
 IR Inten    --     71.7361                27.3245               268.1000

                     22                     23                     24
                      A                      A                      A
 Frequencies --   1102.3729              1126.2779              1218.5971
 Red. masses --      3.1267                 2.4718                 3.5565
 Frc consts  --      2.2387                 1.8474                 3.1117
 IR Inten    --    225.9352               386.9383                 0.6176

                     25                     26                     27
                      A                      A                      A
 Frequencies --   1263.5629              1296.7063              1404.3235
 Red. masses --      1.3000                 4.2417                 3.4591
 Frc consts  --      1.2229                 4.2021                 4.0193
 IR Inten    --    488.6877               204.0127               121.1897

                     28                     29                     30
                      A                      A                      A
 Frequencies --   1493.9990              1501.5151              1565.9482
 Red. masses --      5.5540                 5.5064                 1.0819
 Frc consts  --      7.3040                 7.3144                 1.5631
 IR Inten    --    152.7551               244.5760               151.4854

                     31                     32                     33
                      A                      A                      A
 Frequencies --   1671.1211              3296.2815              3334.7478
 Red. masses --      8.2434                 1.0966                 1.0685
 Frc consts  --     13.5634                 7.0200                 7.0008
 IR Inten    --   1605.3913                 7.1076              1194.9391

                     34                     35                     36
                      A                      A                      A
 Frequencies --   3348.8568              3529.8843              3888.6109
 Red. masses --      1.1007                 1.0689                 1.0673
 Frc consts  --      7.2730                 7.8473                 9.5086
 IR Inten    --     12.3932              1303.7592               174.5181

 - Thermochemistry -
 -------------------
 Temperature   298.150 Kelvin.  Pressure   1.00000 Atm.
 Atom     1 has atomic number  7 and mass  14.00307

 Molecular mass:   131.03309 amu.
 Principal axes and moments of inertia in atomic units:
                           1         2         3
     Eigenvalues --   948.972091130.221542071.62222
           X            0.98943   0.14487  -0.00613
           Y           -0.14490   0.98943  -0.00625
           Z            0.00516   0.00707   0.99996
 This molecule is an asymmetric top.
 Rotational symmetry number  1.
 Warning -- assumption of classical behavior for rotation
           may cause significant error
 Rotational temperatures (Kelvin)      0.09127     0.07663     0.04181
 Rotational constants (GHZ):           1.90179     1.59680     0.87117
 Zero-point vibrational energy     249156.0 (Joules/Mol)
                                   59.54971 (Kcal/Mol)
 Warning -- explicit consideration of  14 degrees of freedom as
           vibrations may cause significant error
 Vibrational temperatures:     42.86   138.25   185.91   215.17   217.69
          (Kelvin)            343.72   365.78   457.24   653.79   667.29
                              792.96   822.81   835.24   891.98   951.25
                             1036.82  1162.36  1284.32  1318.99  1375.17
                             1509.90  1586.07  1620.46  1753.29  1817.99
                             1865.67  2020.51  2149.53  2160.35  2253.05
                             2404.37  4742.61  4797.96  4818.26  5078.72
                             5594.84

 Zero-point correction=                           0.094899 (Hartree/Particle)
 Thermal correction to Energy=                    0.104496
 Thermal correction to Enthalpy=                  0.105440
 Thermal correction to Gibbs Free Energy=         0.058572
 Sum of electronic and zero-point Energies=           -507.080838
 Sum of electronic and thermal Energies=              -507.071241
 Sum of electronic and thermal Enthalpies=            -507.070296
 Sum of electronic and thermal Free Energies=         -507.117165

                     E (Thermal)             CV                S
                      KCal/Mol        Cal/Mol-Kelvin    Cal/Mol-Kelvin
 Total                   65.572             33.253             98.643
 Electronic               0.000              0.000              1.377
 Translational            0.889              2.981             40.524
 Rotational               0.889              2.981             29.187
 Vibrational             63.795             27.291             27.555
 Vibration     1          0.594              1.984              5.843
 Vibration     2          0.603              1.952              3.532
 Vibration     3          0.612              1.924              2.958
 Vibration     4          0.618              1.903              2.678
 Vibration     5          0.619              1.901              2.656
 Vibration     6          0.657              1.781              1.811
 Vibration     7          0.665              1.756              1.701
 Vibration     8          0.704              1.640              1.321
 Vibration     9          0.813              1.351              0.783
 Vibration    10          0.821              1.330              0.755
 Vibration    11          0.906              1.137              0.542
 Vibration    12          0.928              1.092              0.501
 Vibration    13          0.937              1.073              0.484
 Vibration    14          0.980              0.990              0.417

                           ! Non-Optimized Parameters !
 Normal termination of Gaussian 16 at Wed Jul 12 14:05:55 2023.
