 Gaussian 16, Revision A.03,
 Gaussian 16:  ES64L-G16RevA.03 25-Dec-2016

 -----------------------------------------------------
 # opt freq 6-31+g(d,p) m062x scrf=(SMD,solvent=water)
 -----------------------------------------------------

 ----
 test
 ----
 Symbolic Z-matrix:
 Charge =  0 Multiplicity = 1

 SCF Done:  E(RM062X) =  -583.508359816     A.U. after   14 cycles
 SCF Done:  E(RM062X) =  -583.504800764     A.U. after   14 cycles
 SCF Done:  E(RM062X) =  -583.507528986     A.U. after   12 cycles
 SCF Done:  E(RM062X) =  -583.508500527     A.U. after    9 cycles
 SCF Done:  E(RM062X) =  -583.508609047     A.U. after   11 cycles
 SCF Done:  E(RM062X) =  -583.508551997     A.U. after   11 cycles
 SCF Done:  E(RM062X) =  -583.508740668     A.U. after   11 cycles
 SCF Done:  E(RM062X) =  -583.508819657     A.U. after   11 cycles
 SCF Done:  E(RM062X) =  -583.503722483     A.U. after   12 cycles
 SCF Done:  E(RM062X) =  -583.508912382     A.U. after   10 cycles
 SCF Done:  E(RM062X) =  -583.509528266     A.U. after    9 cycles
 SCF Done:  E(RM062X) =  -583.509532127     A.U. after    9 cycles
 SCF Done:  E(RM062X) =  -583.509532283     A.U. after    9 cycles
 SCF Done:  E(RM062X) =  -583.509532936     A.U. after    8 cycles
 SCF Done:  E(RM062X) =  -583.509532935     A.U. after    7 cycles
 SCF Done:  E(RM062X) =  -583.509533112     A.U. after    8 cycles
 SCF Done:  E(RM062X) =  -583.509533393     A.U. after    8 cycles
 SCF Done:  E(RM062X) =  -583.509533445     A.U. after    8 cycles
 SCF Done:  E(RM062X) =  -583.509533491     A.U. after    7 cycles
 Optimization completed.
    -- Stationary point found.
 Normal termination of Gaussian 16 at Tue Jul 11 06:30:06 2023.

 ----------------------------------------------------------------------
 #N Geom=AllCheck Guess=TCheck SCRF=Check GenChk RM062X/6-31+G(d,p) Fre
 q
 ----------------------------------------------------------------------

 Structure from the checkpoint file:  "/scratch/gongke2021/RC/Gau-31643.chk"
 ----
 test
 ----
 Charge =  0 Multiplicity = 1

                         Standard orientation:
 ---------------------------------------------------------------------
 Center     Atomic      Atomic             Coordinates (Angstroms)
 Number     Number       Type             X           Y           Z
 ---------------------------------------------------------------------
      1          7           0        1.168704   -0.941308   -0.088937
      2          7           0        0.803952    0.320680    0.018341
      3          6           0        1.953360    0.978418    0.192421
      4          6           0        2.993457    0.043113    0.180989
      5          7           0        2.463022   -1.169281    0.000422
      6          1           0        1.978869    2.050801    0.313269
      7          1           0        4.057732    0.183057    0.290384
      8          1           0        0.476354   -1.697188   -0.231772
      9          6           0       -1.322008    2.121703   -0.220694
     10          8           0       -0.561516    2.947283    0.079227
     11          8           0       -2.117403    1.328251   -0.527767
     12          1           0       -1.605392   -2.375466   -0.055430
     13          8           0       -0.830200   -2.874126   -0.392302
     14          1           0       -1.023498   -3.068303   -1.318715
     15          1           0       -2.644201   -0.426400    0.474627
     16          8           0       -2.885379   -1.347092    0.651819
     17          1           0       -2.882480   -1.431077    1.614748
 ---------------------------------------------------------------------

 SCF Done:  E(RM062X) =  -583.509533491     A.U. after    1 cycles

 The electronic state is 1-A.
 Alpha  occ. eigenvalues --  -19.73087 -19.73039 -19.65692 -19.64666 -14.86615
 Alpha  occ. eigenvalues --  -14.80824 -14.80717 -10.75503 -10.57728 -10.57641
 Alpha  occ. eigenvalues --   -1.29222  -1.24271  -1.23024  -1.14209  -1.12566
 Alpha  occ. eigenvalues --   -1.00156  -0.92275  -0.71290  -0.71138  -0.66487
 Alpha  occ. eigenvalues --   -0.63096  -0.62084  -0.60664  -0.60371  -0.59831
 Alpha  occ. eigenvalues --   -0.59446  -0.55591  -0.52590  -0.51074  -0.49380
 Alpha  occ. eigenvalues --   -0.46564  -0.44559  -0.44471  -0.40931  -0.40601
 Alpha  occ. eigenvalues --   -0.39635  -0.37807  -0.35674  -0.32985
 Alpha virt. eigenvalues --    0.01237   0.02977   0.03362   0.04408   0.04735
 Alpha virt. eigenvalues --    0.05727   0.06447   0.06981   0.07923   0.08163
 Alpha virt. eigenvalues --    0.08536   0.08905   0.09605   0.10478   0.11808

 Mulliken charges:
               1
     1  N   -0.141174
     2  N   -0.254499
     3  C   -0.041958
     4  C   -0.289289
     5  N   -0.254546
     6  H    0.220956
     7  H    0.221034
     8  H    0.462658
     9  C    0.846296
    10  O   -0.377335
    11  O   -0.434150
    12  H    0.495224
    13  O   -0.910384
    14  H    0.442151
    15  H    0.462963
    16  O   -0.898394
    17  H    0.450447
 Sum of Mulliken charges =  -0.00000

 Dipole moment (field-independent basis, Debye):
    X=             -2.1152    Y=              2.4206    Z=              0.5863  Tot=              3.2676
 Quadrupole moment (field-independent basis, Debye-Ang):
   XX=            -57.6244   YY=            -64.5664   ZZ=            -52.1855
   XY=              5.5447   XZ=             -3.3417   YZ=              2.7721

  Exact polarizability: 109.413  11.981 110.164   5.926   8.024  68.451
 Approx polarizability:  99.823  12.604 101.635   6.444   8.091  62.691

                      1                      2                      3
                      A                      A                      A
 Frequencies --     18.4806                31.0976                36.2611
 Red. masses --      7.4215                 6.3964                 7.2812
 Frc consts  --      0.0015                 0.0036                 0.0056
 IR Inten    --      1.1657                 1.3206                 2.4552

                      4                      5                      6
                      A                      A                      A
 Frequencies --     41.5158                73.6183                93.8988
 Red. masses --      7.2104                 6.0680                 5.8511
 Frc consts  --      0.0073                 0.0194                 0.0304
 IR Inten    --      1.3426                 1.8709                 6.8847

                      7                      8                      9
                      A                      A                      A
 Frequencies --     95.1635               131.7729               139.5749
 Red. masses --      6.1727                 7.3169                 9.6118
 Frc consts  --      0.0329                 0.0749                 0.1103
 IR Inten    --      9.3651                 1.8419                 4.7166

                     10                     11                     12
                      A                      A                      A
 Frequencies --    159.4096               198.6624               212.5697
 Red. masses --      7.3564                 1.0825                 5.3857
 Frc consts  --      0.1101                 0.0252                 0.1434
 IR Inten    --     42.4036               138.3734                21.0663

                     13                     14                     15
                      A                      A                      A
 Frequencies --    270.9763               309.7720               353.8506
 Red. masses --      1.0610                 1.1586                 1.0580
 Frc consts  --      0.0459                 0.0655                 0.0780
 IR Inten    --    312.5209               238.4562               154.2055

                     16                     17                     18
                      A                      A                      A
 Frequencies --    447.4096               637.8130               663.8904
 Red. masses --      1.0938                12.9124                12.8030
 Frc consts  --      0.1290                 3.0949                 3.3247
 IR Inten    --     94.4833               107.6702                60.2101

                     19                     20                     21
                      A                      A                      A
 Frequencies --    683.1882               690.6917               702.2723
 Red. masses --      3.4929                 1.0607                10.3440
 Frc consts  --      0.9605                 0.2981                 3.0057
 IR Inten    --      0.5281               269.2802                 9.3284

                     22                     23                     24
                      A                      A                      A
 Frequencies --    846.4716               916.8176               942.0069
 Red. masses --      1.2045                 1.3989                 1.0488
 Frc consts  --      0.5085                 0.6928                 0.5483
 IR Inten    --     58.0316                 0.0310               217.3208

                     25                     26                     27
                      A                      A                      A
 Frequencies --    956.7603               978.9385              1096.9937
 Red. masses --      6.8125                 4.4443                 1.4400
 Frc consts  --      3.6742                 2.5093                 1.0210
 IR Inten    --     42.3632                53.6419                 0.1527

                     28                     29                     30
                      A                      A                      A
 Frequencies --   1161.7216              1194.4446              1320.5692
 Red. masses --      1.5134                 7.2618                 5.6418
 Frc consts  --      1.2034                 6.1042                 5.7969
 IR Inten    --     82.8283                 3.9772                 9.2589

                     31                     32                     33
                      A                      A                      A
 Frequencies --   1321.5133              1406.2882              1479.2340
 Red. masses --      2.6220                15.9836                 3.0907
 Frc consts  --      2.6979                18.6241                 3.9846
 IR Inten    --     36.5933                 1.7445                 8.5369

                     34                     35                     36
                      A                      A                      A
 Frequencies --   1487.4136              1578.9077              1593.8334
 Red. masses --      3.7435                 1.0835                 1.2049
 Frc consts  --      4.8797                 1.5915                 1.8034
 IR Inten    --     22.8949               181.3315               100.9252

                     37                     38                     39
                      A                      A                      A
 Frequencies --   1608.4553              2380.6710              3186.5898
 Red. masses --      1.5260                12.8516                 1.1059
 Frc consts  --      2.3261                42.9147                 6.6165
 IR Inten    --     15.2698              1616.1131              2091.2197

                     40                     41                     42
                      A                      A                      A
 Frequencies --   3311.5549              3326.3045              3515.0554
 Red. masses --      1.0942                 1.1059                 1.0638
 Frc consts  --      7.0699                 7.2093                 7.7440
 IR Inten    --      1.3717                 0.0624               985.7804

                     43                     44                     45
                      A                      A                      A
 Frequencies --   3825.5363              3893.1496              3918.8023
 Red. masses --      1.0462                 1.0683                 1.0816
 Frc consts  --      9.0213                 9.5398                 9.7863
 IR Inten    --    153.9949               179.5304               323.5854

 - Thermochemistry -
 -------------------
 Temperature   298.150 Kelvin.  Pressure   1.00000 Atm.
 Atom     1 has atomic number  7 and mass  14.00307

 Molecular mass:   149.04366 amu.
 Principal axes and moments of inertia in atomic units:
                           1         2         3
     Eigenvalues --  1673.684122039.025333568.71820
           X            0.98706   0.16027  -0.00507
           Y           -0.16024   0.98706   0.00603
           Z            0.00597  -0.00514   0.99997
 This molecule is an asymmetric top.
 Rotational symmetry number  1.
 Warning -- assumption of classical behavior for rotation
           may cause significant error
 Rotational temperatures (Kelvin)      0.05175     0.04248     0.02427
 Rotational constants (GHZ):           1.07830     0.88510     0.50571
 Zero-point vibrational energy     318445.5 (Joules/Mol)
                                   76.11029 (Kcal/Mol)
 Warning -- explicit consideration of  16 degrees of freedom as
           vibrations may cause significant error
 Vibrational temperatures:     26.59    44.74    52.17    59.73   105.92
          (Kelvin)            135.10   136.92   189.59   200.82   229.35
                              285.83   305.84   389.87   445.69   509.11
                              643.72   917.67   955.19   982.96   993.75
                             1010.41  1217.88  1319.10  1355.34  1376.56
                             1408.47  1578.33  1671.46  1718.54  1900.00
                             1901.36  2023.34  2128.29  2140.06  2271.70
                             2293.17  2314.21  3425.25  4584.79  4764.59
                             4785.81  5057.38  5504.09  5601.37  5638.28

 Zero-point correction=                           0.121289 (Hartree/Particle)
 Thermal correction to Energy=                    0.135423
 Thermal correction to Enthalpy=                  0.136367
 Thermal correction to Gibbs Free Energy=         0.076449
 Sum of electronic and zero-point Energies=           -583.388244
 Sum of electronic and thermal Energies=              -583.374110
 Sum of electronic and thermal Enthalpies=            -583.373166
 Sum of electronic and thermal Free Energies=         -583.433084

                     E (Thermal)             CV                S
                      KCal/Mol        Cal/Mol-Kelvin    Cal/Mol-Kelvin
 Total                   84.979             43.612            126.108
 Electronic               0.000              0.000              0.000
 Translational            0.889              2.981             40.908
 Rotational               0.889              2.981             30.877
 Vibrational             83.202             37.651             54.323
 Vibration     1          0.593              1.986              6.791
 Vibration     2          0.594              1.983              5.758
 Vibration     3          0.594              1.982              5.454
 Vibration     4          0.594              1.981              5.185
 Vibration     5          0.599              1.966              4.054
 Vibration     6          0.603              1.954              3.577
 Vibration     7          0.603              1.953              3.551
 Vibration     8          0.612              1.922              2.920
 Vibration     9          0.615              1.914              2.810
 Vibration    10          0.621              1.892              2.557
 Vibration    11          0.637              1.842              2.145
 Vibration    12          0.644              1.822              2.021
 Vibration    13          0.675              1.727              1.590
 Vibration    14          0.699              1.655              1.364
 Vibration    15          0.730              1.567              1.149
 Vibration    16          0.807              1.367              0.804

                           ! Non-Optimized Parameters !
 Normal termination of Gaussian 16 at Tue Jul 11 06:31:27 2023.
