 Gaussian 16, Revision A.03,
 Gaussian 16:  ES64L-G16RevA.03 25-Dec-2016

 -----------------------------------------------------
 # opt freq 6-31+g(d,p) m062x scrf=(SMD,solvent=water)
 -----------------------------------------------------

 ----
 test
 ----
 Symbolic Z-matrix:
 Charge =  0 Multiplicity = 1

 SCF Done:  E(RM062X) =  -583.449049935     A.U. after   14 cycles
 SCF Done:  E(RM062X) =  -583.468412134     A.U. after   12 cycles
 SCF Done:  E(RM062X) =  -583.482349656     A.U. after   13 cycles
 SCF Done:  E(RM062X) =  -583.492058713     A.U. after   12 cycles
 SCF Done:  E(RM062X) =  -583.498975435     A.U. after   13 cycles
 SCF Done:  E(RM062X) =  -583.500158558     A.U. after   13 cycles
 SCF Done:  E(RM062X) =  -583.503121951     A.U. after   12 cycles
 SCF Done:  E(RM062X) =  -583.504507927     A.U. after   12 cycles
 SCF Done:  E(RM062X) =  -583.505017762     A.U. after   12 cycles
 SCF Done:  E(RM062X) =  -583.505375365     A.U. after   11 cycles
 SCF Done:  E(RM062X) =  -583.506255327     A.U. after    9 cycles
 SCF Done:  E(RM062X) =  -583.506256839     A.U. after    9 cycles
 SCF Done:  E(RM062X) =  -583.506257148     A.U. after    9 cycles
 SCF Done:  E(RM062X) =  -583.506257356     A.U. after    7 cycles
 SCF Done:  E(RM062X) =  -583.506257474     A.U. after    8 cycles
 SCF Done:  E(RM062X) =  -583.506257550     A.U. after    8 cycles
 SCF Done:  E(RM062X) =  -583.506257510     A.U. after    8 cycles
 SCF Done:  E(RM062X) =  -583.506257502     A.U. after    8 cycles
 SCF Done:  E(RM062X) =  -583.506257487     A.U. after    8 cycles
 Optimization completed.
    -- Stationary point found.
 Normal termination of Gaussian 16 at Tue Jul 11 06:12:24 2023.

 ----------------------------------------------------------------------
 #N Geom=AllCheck Guess=TCheck SCRF=Check GenChk RM062X/6-31+G(d,p) Fre
 q
 ----------------------------------------------------------------------

 Structure from the checkpoint file:  "/scratch/gongke2021/PC/Gau-21888.chk"
 ----
 test
 ----
 Charge =  0 Multiplicity = 1

                         Standard orientation:
 ---------------------------------------------------------------------
 Center     Atomic      Atomic             Coordinates (Angstroms)
 Number     Number       Type             X           Y           Z
 ---------------------------------------------------------------------
      1          7           0       -0.089363   -0.845815   -0.098400
      2          7           0        0.959969   -0.008844   -0.025215
      3          6           0        2.110970   -0.694960    0.200998
      4          6           0        1.708305   -1.999458    0.273320
      5          7           0        0.355525   -2.044618    0.079558
      6          1           0        3.067151   -0.205028    0.295498
      7          1           0        2.288642   -2.891067    0.449002
      8          1           0       -2.049089   -1.136639   -0.912897
      9          6           0        0.838994    1.413879   -0.208607
     10          8           0        1.853508    2.042677   -0.431157
     11          8           0       -0.350395    1.904612   -0.136299
     12          1           0       -2.688904    0.217637    0.420267
     13          8           0       -2.984489   -1.070781   -0.660334
     14          1           0       -3.454073   -0.794440   -1.459100
     15          1           0       -1.168303    1.374633    0.344219
     16          8           0       -2.317174    0.971354    0.945632
     17          1           0       -2.139553    0.630186    1.834417
 ---------------------------------------------------------------------

 SCF Done:  E(RM062X) =  -583.506257487     A.U. after    1 cycles

 The electronic state is 1-A.
 Alpha  occ. eigenvalues --  -19.68424 -19.67081 -19.65941 -19.65807 -14.87906
 Alpha  occ. eigenvalues --  -14.85304 -14.81534 -10.74639 -10.61011 -10.58676
 Alpha  occ. eigenvalues --   -1.26970  -1.22869  -1.17054  -1.15119  -1.13721
 Alpha  occ. eigenvalues --   -1.03805  -0.92547  -0.79176  -0.73316  -0.71222
 Alpha  occ. eigenvalues --   -0.66715  -0.63176  -0.61161  -0.59869  -0.57577
 Alpha  occ. eigenvalues --   -0.55277  -0.53437  -0.53114  -0.51832  -0.48495
 Alpha  occ. eigenvalues --   -0.47345  -0.44076  -0.41922  -0.41089  -0.40694
 Alpha  occ. eigenvalues --   -0.40037  -0.38043  -0.36508  -0.33792
 Alpha virt. eigenvalues --   -0.01837   0.01937   0.03731   0.04411   0.04520
 Alpha virt. eigenvalues --    0.05841   0.06015   0.06791   0.07696   0.08571
 Alpha virt. eigenvalues --    0.09508   0.10536   0.11378   0.11435   0.13453

 Mulliken charges:
               1
     1  N   -0.051034
     2  N   -0.250492
     3  C   -0.044711
     4  C   -0.235846
     5  N   -0.286435
     6  H    0.269706
     7  H    0.233459
     8  H    0.456687
     9  C    0.823741
    10  O   -0.546004
    11  O   -0.620946
    12  H    0.511311
    13  O   -0.843977
    14  H    0.453773
    15  H    0.570624
    16  O   -0.916703
    17  H    0.476846
 Sum of Mulliken charges =  -0.00000

 Dipole moment (field-independent basis, Debye):
    X=             -0.8785    Y=             -3.5549    Z=              1.2323  Tot=              3.8637
 Quadrupole moment (field-independent basis, Debye-Ang):
   XX=            -50.7639   YY=            -77.6188   ZZ=            -50.3850
   XY=            -11.6031   XZ=              6.7993   YZ=              3.3800

  Exact polarizability: 119.789   5.233 119.904   0.912  -5.448  69.072
 Approx polarizability: 107.215   5.384 103.491   1.555  -4.912  63.040

                      1                      2                      3
                      A                      A                      A
 Frequencies --     35.3622                53.2754                86.5483
 Red. masses --      5.3857                 5.5811                 7.1437
 Frc consts  --      0.0040                 0.0093                 0.0315
 IR Inten    --     19.5182                13.4417                 4.2275

                      4                      5                      6
                      A                      A                      A
 Frequencies --    113.3821               121.3721               169.9196
 Red. masses --      5.4421                 5.4261                 6.8134
 Frc consts  --      0.0412                 0.0471                 0.1159
 IR Inten    --     34.2868                36.8812                78.6451

                      7                      8                      9
                      A                      A                      A
 Frequencies --    176.3748               229.0188               261.1532
 Red. masses --      5.4416                 4.1124                 1.1690
 Frc consts  --      0.0997                 0.1271                 0.0470
 IR Inten    --     91.9935                 5.6562               216.7692

                     10                     11                     12
                      A                      A                      A
 Frequencies --    266.9118               344.2814               410.0412
 Red. masses --      1.0574                 4.9370                 1.2321
 Frc consts  --      0.0444                 0.3448                 0.1221
 IR Inten    --    221.3163               276.3936               106.2864

                     13                     14                     15
                      A                      A                      A
 Frequencies --    434.5466               458.2809               547.0168
 Red. masses --      1.2878                 5.0154                 2.3620
 Frc consts  --      0.1433                 0.6206                 0.4164
 IR Inten    --    222.5376                82.4935                17.3334

                     16                     17                     18
                      A                      A                      A
 Frequencies --    575.7727               636.6764               722.6246
 Red. masses --      1.6205                 3.7495                 8.5974
 Frc consts  --      0.3165                 0.8955                 2.6451
 IR Inten    --    120.8364                 5.3382                 2.1568

                     19                     20                     21
                      A                      A                      A
 Frequencies --    748.9359               780.5403               818.3386
 Red. masses --      6.7427                 7.0691                 1.3006
 Frc consts  --      2.2283                 2.5375                 0.5132
 IR Inten    --    373.5844                97.3228                71.2931

                     22                     23                     24
                      A                      A                      A
 Frequencies --    886.2146               918.0526               969.4147
 Red. masses --      1.0797                 1.3934                 5.3361
 Frc consts  --      0.4996                 0.6919                 2.9546
 IR Inten    --    121.4465                 1.5913                 4.1038

                     25                     26                     27
                      A                      A                      A
 Frequencies --   1058.8774              1077.8332              1154.7208
 Red. masses --      5.0536                 1.3782                 1.9473
 Frc consts  --      3.3384                 0.9433                 1.5298
 IR Inten    --     70.0030               197.7491                 8.4088

                     28                     29                     30
                      A                      A                      A
 Frequencies --   1204.9015              1271.6014              1302.3928
 Red. masses --      1.1776                 6.0747                 5.0615
 Frc consts  --      1.0073                 5.7874                 5.0584
 IR Inten    --   1861.7171               191.5589               270.3722

                     31                     32                     33
                      A                      A                      A
 Frequencies --   1347.5581              1356.1995              1414.3531
 Red. masses --      2.7394                 1.4457                 5.6236
 Frc consts  --      2.9309                 1.5667                 6.6280
 IR Inten    --    261.8545               602.1063               297.0105

                     34                     35                     36
                      A                      A                      A
 Frequencies --   1488.7182              1571.9545              1575.8703
 Red. masses --      5.8667                 1.0987                 4.6649
 Frc consts  --      7.6607                 1.5996                 6.8256
 IR Inten    --    181.2395               147.2428                 5.4307

                     37                     38                     39
                      A                      A                      A
 Frequencies --   1620.0975              1771.8730              1903.2563
 Red. masses --      1.0714                 3.5637                 1.4315
 Frc consts  --      1.6569                 6.5920                 3.0551
 IR Inten    --    291.3725              2611.3978              1533.9236

                     40                     41                     42
                      A                      A                      A
 Frequencies --   3299.6241              3327.7852              3344.1061
 Red. masses --      1.0685                 1.0947                 1.1111
 Frc consts  --      6.8544                 7.1429                 7.3209
 IR Inten    --   1369.5142                23.3765                19.6024

                     43                     44                     45
                      A                      A                      A
 Frequencies --   3778.5477              3856.9007              3897.1805
 Red. masses --      1.0498                 1.0667                 1.0782
 Frc consts  --      8.8312                 9.3495                 9.6483
 IR Inten    --    285.8410               223.1968               327.8673

 - Thermochemistry -
 -------------------
 Temperature   298.150 Kelvin.  Pressure   1.00000 Atm.
 Atom     1 has atomic number  7 and mass  14.00307

 Molecular mass:   149.04366 amu.
 Principal axes and moments of inertia in atomic units:
                           1         2         3
     Eigenvalues --  1251.955111695.909282707.92310
           X            0.99897  -0.04477   0.00802
           Y            0.04470   0.99896   0.00874
           Z           -0.00840  -0.00837   0.99993
 This molecule is an asymmetric top.
 Rotational symmetry number  1.
 Warning -- assumption of classical behavior for rotation
           may cause significant error
 Rotational temperatures (Kelvin)      0.06918     0.05107     0.03199
 Rotational constants (GHZ):           1.44154     1.06417     0.66647
 Zero-point vibrational energy     319333.6 (Joules/Mol)
                                   76.32256 (Kcal/Mol)
 Warning -- explicit consideration of  16 degrees of freedom as
           vibrations may cause significant error
 Vibrational temperatures:     50.88    76.65   124.52   163.13   174.63
          (Kelvin)            244.48   253.76   329.51   375.74   384.03
                              495.34   589.96   625.22   659.36   787.04
                              828.41   916.04  1039.70  1077.55  1123.02
                             1177.41  1275.07  1320.87  1394.77  1523.49
                             1550.76  1661.39  1733.58  1829.55  1873.85
                             1938.84  1951.27  2034.94  2141.93  2261.69
                             2267.33  2330.96  2549.33  2738.36  4747.42
                             4787.94  4811.42  5436.49  5549.22  5607.17

 Zero-point correction=                           0.121628 (Hartree/Particle)
 Thermal correction to Energy=                    0.133350
 Thermal correction to Enthalpy=                  0.134294
 Thermal correction to Gibbs Free Energy=         0.082925
 Sum of electronic and zero-point Energies=           -583.384630
 Sum of electronic and thermal Energies=              -583.372908
 Sum of electronic and thermal Enthalpies=            -583.371964
 Sum of electronic and thermal Free Energies=         -583.423332

                     E (Thermal)             CV                S
                      KCal/Mol        Cal/Mol-Kelvin    Cal/Mol-Kelvin
 Total                   83.678             39.970            108.114
 Electronic               0.000              0.000              0.000
 Translational            0.889              2.981             40.908
 Rotational               0.889              2.981             30.131
 Vibrational             81.901             34.008             37.075
 Vibration     1          0.594              1.982              5.503
 Vibration     2          0.596              1.976              4.692
 Vibration     3          0.601              1.959              3.737
 Vibration     4          0.607              1.938              3.210
 Vibration     5          0.609              1.931              3.078
 Vibration     6          0.625              1.880              2.436
 Vibration     7          0.628              1.871              2.366
 Vibration     8          0.652              1.797              1.887
 Vibration     9          0.669              1.744              1.654
 Vibration    10          0.672              1.734              1.616
 Vibration    11          0.723              1.587              1.192
 Vibration    12          0.774              1.448              0.926
 Vibration    13          0.795              1.395              0.844
 Vibration    14          0.816              1.343              0.771
 Vibration    15          0.902              1.146              0.550
 Vibration    16          0.932              1.084              0.493

 Optimization completed.
    -- Stationary point found.
 Normal termination of Gaussian 16 at Tue Jul 11 06:13:53 2023.
