 Gaussian 16, Revision C.01,
 Gaussian 16:  ES64L-G16RevC.01  3-Jul-2019

 ----------------------------------------------------------------------
 # opt=(calcfc,ts,noeigentest) freq 6-31+g(d,p) scrf=(smd,solvent=water
 ) integral=grid=ultrafine m062x
 ----------------------------------------------------------------------

 ----
 test
 ----
 Symbolic Z-matrix:
 Charge =  0 Multiplicity = 1

 SCF Done:  E(RM062X) =  -507.078264071     A.U. after   14 cycles
 SCF Done:  E(RM062X) =  -507.081170390     A.U. after   12 cycles
 SCF Done:  E(RM062X) =  -507.081512155     A.U. after   13 cycles
 SCF Done:  E(RM062X) =  -507.081704191     A.U. after   12 cycles
 SCF Done:  E(RM062X) =  -507.081710227     A.U. after   11 cycles
 SCF Done:  E(RM062X) =  -507.081636088     A.U. after   12 cycles
 SCF Done:  E(RM062X) =  -507.081703794     A.U. after   11 cycles
 SCF Done:  E(RM062X) =  -507.081703363     A.U. after    9 cycles
 SCF Done:  E(RM062X) =  -507.081702925     A.U. after    9 cycles
 SCF Done:  E(RM062X) =  -507.081703039     A.U. after    8 cycles
 Optimization completed.
    -- Stationary point found.
 Normal termination of Gaussian 16 at Thu Dec  7 00:16:14 2023.

 ----------------------------------------------------------------------
 #N Geom=AllCheck Guess=TCheck SCRF=Check GenChk RM062X/6-31+G(d,p) Fre
 q
 ----------------------------------------------------------------------

 Structure from the checkpoint file:  "/home/gau/soft/scratch/Gau-36183.chk"
 ----
 test
 ----
 Charge =  0 Multiplicity = 1

                         Standard orientation:
 ---------------------------------------------------------------------
 Center     Atomic      Atomic             Coordinates (Angstroms)
 Number     Number       Type             X           Y           Z
 ---------------------------------------------------------------------
      1          7           0        0.351757   -0.979020   -0.012159
      2          7           0        0.392624    0.356637    0.000389
      3          6           0        1.676951    0.769489    0.010348
      4          6           0        2.415162   -0.390771    0.003876
      5          7           0        1.560174   -1.444295   -0.009767
      6          1           0        1.944179    1.814028    0.019734
      7          1           0        3.484695   -0.526653    0.007503
      8          1           0       -2.285014   -0.991036   -0.013779
      9          6           0       -0.829528    1.221515   -0.001062
     10          8           0       -0.573552    2.423137    0.020485
     11          8           0       -1.914688    0.610870   -0.024892
     12          1           0       -0.920237   -1.723191   -0.018589
     13          8           0       -1.970182   -1.943433   -0.075181
     14          1           0       -2.263641   -2.432402    0.713627
 ---------------------------------------------------------------------

 SCF Done:  E(RM062X) =  -507.081703039     A.U. after    1 cycles

 The electronic state is 1-A.
 Alpha  occ. eigenvalues --  -19.72265 -19.64506 -19.63754 -14.87729 -14.86470
 Alpha  occ. eigenvalues --  -14.82141 -10.72457 -10.61003 -10.58901  -1.26143
 Alpha  occ. eigenvalues --   -1.22330  -1.21081  -1.12509  -1.03484  -0.93069
 Alpha  occ. eigenvalues --   -0.77131  -0.73571  -0.70148  -0.68037  -0.62938
 Alpha  occ. eigenvalues --   -0.59853  -0.59229  -0.55004  -0.54282  -0.52518
 Alpha  occ. eigenvalues --   -0.52132  -0.51366  -0.44681  -0.40224  -0.38661
 Alpha  occ. eigenvalues --   -0.38290  -0.37210  -0.36577  -0.34150
 Alpha virt. eigenvalues --   -0.01309   0.02024   0.03778   0.04521   0.04829
 Alpha virt. eigenvalues --    0.05779   0.05962   0.06622   0.07684   0.09435
 Alpha virt. eigenvalues --    0.10383   0.10578   0.11815   0.12862   0.13401

 Mulliken charges:
               1
     1  N   -0.180677
     2  N   -0.179995
     3  C   -0.013662
     4  C   -0.269639
     5  N   -0.233257
     6  H    0.266141
     7  H    0.235911
     8  H    0.525729
     9  C    0.850301
    10  O   -0.632367
    11  O   -0.723620
    12  H    0.545374
    13  O   -0.688296
    14  H    0.498056
 Sum of Mulliken charges =  -0.00000

 Dipole moment (field-independent basis, Debye):
    X=              1.2059    Y=             -6.8647    Z=              1.9770  Tot=              7.2448
 Quadrupole moment (field-independent basis, Debye-Ang):
   XX=            -41.8963   YY=            -60.2218   ZZ=            -51.6749
   XY=             20.0433   XZ=             -4.5348   YZ=             -5.0378

  Exact polarizability:     112.517       4.112     112.406      -0.178      -0.178      54.584
 Approx polarizability:      96.710       4.922     100.677      -0.073      -0.103      51.196

 ******    1 imaginary frequencies (negative Signs) ******

                      1                      2                      3
                      A                      A                      A
 Frequencies --   -275.7896                66.3794                93.6872
 Red. masses --      1.9956                10.4059                 5.4252
 Frc consts  --      0.0894                 0.0270                 0.0281
 IR Inten    --    111.0543                 8.9825                34.5298

                      4                      5                      6
                      A                      A                      A
 Frequencies --    170.4379               252.3078               268.1631
 Red. masses --      7.3467                 8.4323                 4.0124
 Frc consts  --      0.1257                 0.3163                 0.1700
 IR Inten    --      6.4928                 1.6951               417.3879

                      7                      8                      9
                      A                      A                      A
 Frequencies --    420.0952               453.6557               520.8875
 Red. masses --      4.1560                 1.6401                 1.5310
 Frc consts  --      0.4321                 0.1989                 0.2447
 IR Inten    --     54.7268                51.8497                75.8619

                     10                     11                     12
                      A                      A                      A
 Frequencies --    558.5534               592.0381               641.3589
 Red. masses --      2.9341                 1.2733                 3.4267
 Frc consts  --      0.5393                 0.2630                 0.8305
 IR Inten    --     73.6484               130.4635                 6.5795

                     13                     14                     15
                      A                      A                      A
 Frequencies --    716.9237               777.7400               783.3153
 Red. masses --      8.3319                12.1552                 8.8166
 Frc consts  --      2.5231                 4.3319                 3.1873
 IR Inten    --      6.9021               412.0425                90.0413

                     16                     17                     18
                      A                      A                      A
 Frequencies --    834.0656               924.4447               975.1604
 Red. masses --      1.2533                 1.3960                 5.4257
 Frc consts  --      0.5137                 0.7029                 3.0399
 IR Inten    --     69.6705                 0.4785                17.0151

                     19                     20                     21
                      A                      A                      A
 Frequencies --   1062.8980              1106.2296              1180.7115
 Red. masses --      1.5077                 2.9547                 2.0248
 Frc consts  --      1.0035                 2.1303                 1.6631
 IR Inten    --     96.4030               113.8616                15.8958

                     22                     23                     24
                      A                      A                      A
 Frequencies --   1263.4865              1299.1428              1327.9667
 Red. masses --      6.7434                 1.2244                 5.4792
 Frc consts  --      6.3426                 1.2176                 5.6930
 IR Inten    --    429.7087              1208.1033               352.0385

                     25                     26                     27
                      A                      A                      A
 Frequencies --   1349.8623              1399.1629              1493.0433
 Red. masses --      5.5361                 7.8077                 1.2512
 Frc consts  --      5.9434                 9.0055                 1.6433
 IR Inten    --    155.4408               232.7934               805.4386

                     28                     29                     30
                      A                      A                      A
 Frequencies --   1503.0732              1555.9251              1579.3948
 Red. masses --      2.9538                 4.1171                 1.2335
 Frc consts  --      3.9319                 5.8724                 1.8129
 IR Inten    --    100.3761                87.5072              1868.8539

                     31                     32                     33
                      A                      A                      A
 Frequencies --   1767.1932              2117.7683              3149.0363
 Red. masses --      7.9510                 1.0905                 1.0636
 Frc consts  --     14.6299                 2.8817                 6.2142
 IR Inten    --    889.4455              2825.4046              1493.3885

                     34                     35                     36
                      A                      A                      A
 Frequencies --   3329.7151              3348.8714              3788.6981
 Red. masses --      1.0965                 1.1086                 1.0661
 Frc consts  --      7.1628                 7.3253                 9.0162
 IR Inten    --     12.4470                26.4659               365.9596

 - Thermochemistry -
 -------------------
 Temperature   298.150 Kelvin.  Pressure   1.00000 Atm.
 Atom     1 has atomic number  7 and mass  14.00307

 Molecular mass:   131.03309 amu.
 Principal axes and moments of inertia in atomic units:
                           1         2         3
     Eigenvalues --   869.917541092.370481957.98172
           X            0.98385   0.17894  -0.00518
           Y           -0.17897   0.98383  -0.00705
           Z            0.00383   0.00786   0.99996
 This molecule is an asymmetric top.
 Rotational symmetry number  1.
 Warning -- assumption of classical behavior for rotation
           may cause significant error
 Rotational temperatures (Kelvin)      0.09957     0.07929     0.04424
 Rotational constants (GHZ):           2.07461     1.65213     0.92174
    1 imaginary frequencies ignored.
 Zero-point vibrational energy     255231.6 (Joules/Mol)
                                   61.00182 (Kcal/Mol)
 Warning -- explicit consideration of  10 degrees of freedom as
           vibrations may cause significant error
 Vibrational temperatures:     95.51   134.80   245.22   363.01   385.83
          (Kelvin)            604.42   652.71   749.44   803.63   851.81
                              922.77  1031.49  1118.99  1127.02  1200.03
                             1330.07  1403.04  1529.27  1591.62  1698.78
                             1817.88  1869.18  1910.65  1942.15  2013.08
                             2148.16  2162.59  2238.63  2272.40  2542.60
                             3047.00  4530.76  4790.72  4818.28  5451.09

 Zero-point correction=                           0.097213 (Hartree/Particle)
 Thermal correction to Energy=                    0.104968
 Thermal correction to Enthalpy=                  0.105912
 Thermal correction to Gibbs Free Energy=         0.063969
 Sum of electronic and zero-point Energies=           -506.984490
 Sum of electronic and thermal Energies=              -506.976735
 Sum of electronic and thermal Enthalpies=            -506.975791
 Sum of electronic and thermal Free Energies=         -507.017734

                     E (Thermal)             CV                S
                      KCal/Mol        Cal/Mol-Kelvin    Cal/Mol-Kelvin
 Total                   65.869             27.779             88.278
 Electronic               0.000              0.000              0.000
 Translational            0.889              2.981             40.524
 Rotational               0.889              2.981             29.011
 Vibrational             64.091             21.818             18.744
 Vibration     1          0.598              1.970              4.258
 Vibration     2          0.603              1.954              3.582
 Vibration     3          0.626              1.879              2.431
 Vibration     4          0.664              1.759              1.714
 Vibration     5          0.673              1.732              1.608
 Vibration     6          0.783              1.427              0.892
 Vibration     7          0.812              1.353              0.785
 Vibration     8          0.876              1.204              0.608
 Vibration     9          0.914              1.121              0.527
 Vibration    10          0.950              1.049              0.464

 Optimization completed.
    -- Stationary point found.
 Normal termination of Gaussian 16 at Thu Dec  7 00:17:01 2023.
