 Gaussian 16, Revision A.03,
 Gaussian 16:  ES64L-G16RevA.03 25-Dec-2016

 -----------------------------------------------------
 # opt freq 6-31+g(d,p) m062x scrf=(SMD,solvent=water)
 -----------------------------------------------------

 ----
 test
 ----
 Symbolic Z-matrix:
 Charge = -1 Multiplicity = 2

 SCF Done:  E(UM062X) =  -583.550039076     A.U. after   19 cycles
 SCF Done:  E(UM062X) =  -583.581174431     A.U. after   16 cycles
 SCF Done:  E(UM062X) =  -583.587420907     A.U. after   16 cycles
 SCF Done:  E(UM062X) =  -583.590178290     A.U. after   16 cycles
 SCF Done:  E(UM062X) =  -583.591596195     A.U. after   14 cycles
 SCF Done:  E(UM062X) =  -583.592568031     A.U. after   16 cycles
 SCF Done:  E(UM062X) =  -583.593013929     A.U. after   16 cycles
 SCF Done:  E(UM062X) =  -583.593325081     A.U. after   14 cycles
 SCF Done:  E(UM062X) =  -583.593548082     A.U. after   14 cycles
 SCF Done:  E(UM062X) =  -583.593701157     A.U. after   15 cycles
 SCF Done:  E(UM062X) =  -583.594118632     A.U. after   14 cycles
 SCF Done:  E(UM062X) =  -583.594135517     A.U. after   13 cycles
 SCF Done:  E(UM062X) =  -583.594152682     A.U. after   14 cycles
 SCF Done:  E(UM062X) =  -583.594158911     A.U. after   13 cycles
 SCF Done:  E(UM062X) =  -583.594162103     A.U. after   11 cycles
 SCF Done:  E(UM062X) =  -583.594165334     A.U. after   11 cycles
 SCF Done:  E(UM062X) =  -583.594166806     A.U. after   11 cycles
 SCF Done:  E(UM062X) =  -583.594167577     A.U. after   10 cycles
 SCF Done:  E(UM062X) =  -583.594167754     A.U. after    8 cycles
 Optimization completed.
    -- Stationary point found.
 Normal termination of Gaussian 16 at Tue Jul 11 22:58:50 2023.

 ----------------------------------------------------------------------
 #N Geom=AllCheck Guess=TCheck SCRF=Check GenChk UM062X/6-31+G(d,p) Fre
 q
 ----------------------------------------------------------------------

 Structure from the checkpoint file:  "/scratch/gongke2021/PC/Gau-7227.chk"
 ----
 test
 ----
 Charge = -1 Multiplicity = 2

                         Standard orientation:
 ---------------------------------------------------------------------
 Center     Atomic      Atomic             Coordinates (Angstroms)
 Number     Number       Type             X           Y           Z
 ---------------------------------------------------------------------
      1          7           0       -0.043960   -0.853411   -0.280330
      2          7           0       -0.931326    0.195712   -0.018511
      3          6           0       -2.237428   -0.294678    0.021046
      4          6           0       -2.091565   -1.638534   -0.229339
      5          7           0       -0.796539   -1.968376   -0.405754
      6          1           0       -3.087288    0.341885    0.199490
      7          1           0       -2.870475   -2.385774   -0.290931
      8          1           0        1.352243   -1.165480    0.763734
      9          6           0       -0.539736    1.480341    0.113905
     10          8           0       -1.331215    2.403150    0.387756
     11          8           0        0.774250    1.740564   -0.044576
     12          1           0        2.925797   -0.363655   -0.198318
     13          8           0        2.219311   -1.368500    1.205749
     14          1           0        2.229426   -0.840690    2.014898
     15          1           0        1.309810    0.995971   -0.407530
     16          8           0        2.947704    0.311921   -0.905081
     17          1           0        2.875237   -0.179583   -1.733630
 ---------------------------------------------------------------------

 SCF Done:  E(UM062X) =  -583.594167754     A.U. after    1 cycles

 The electronic state is 2-A.
 Alpha  occ. eigenvalues --  -19.67643 -19.64519 -19.63710 -19.62125 -14.83918
 Alpha  occ. eigenvalues --  -14.79259 -14.76564 -10.69721 -10.56556 -10.56216
 Alpha  occ. eigenvalues --   -1.22970  -1.16476  -1.13274  -1.12247  -1.11393
 Alpha  occ. eigenvalues --   -1.00197  -0.88328  -0.78048  -0.69158  -0.67732
 Alpha  occ. eigenvalues --   -0.63742  -0.60496  -0.59028  -0.56704  -0.53927
 Alpha  occ. eigenvalues --   -0.52346  -0.49823  -0.49405  -0.48044  -0.46807
 Alpha  occ. eigenvalues --   -0.46267  -0.40795  -0.40152  -0.39115  -0.38850
 Alpha  occ. eigenvalues --   -0.37513  -0.36286  -0.34150  -0.32235  -0.15651
 Alpha virt. eigenvalues --    0.02665   0.04172   0.05059   0.05493   0.06445
 Alpha virt. eigenvalues --    0.06603   0.07375   0.08520   0.09875   0.10407
 Alpha virt. eigenvalues --    0.11475   0.12329   0.12666   0.13879   0.15741

  Beta  occ. eigenvalues --  -19.67588 -19.64518 -19.63691 -19.61906 -14.83912
  Beta  occ. eigenvalues --  -14.78735 -14.76259 -10.69578 -10.56364 -10.56277
  Beta  occ. eigenvalues --   -1.22494  -1.15663  -1.13180  -1.11765  -1.11337
  Beta  occ. eigenvalues --   -0.99321  -0.87397  -0.76917  -0.68773  -0.67322
  Beta  occ. eigenvalues --   -0.63103  -0.60429  -0.58782  -0.55214  -0.53359
  Beta  occ. eigenvalues --   -0.52062  -0.49265  -0.48367  -0.47457  -0.46595
  Beta  occ. eigenvalues --   -0.46041  -0.40649  -0.39047  -0.38479  -0.38163
  Beta  occ. eigenvalues --   -0.36841  -0.33702  -0.33272  -0.28985
  Beta virt. eigenvalues --   -0.00119   0.02280   0.04024   0.04881   0.04942
  Beta virt. eigenvalues --    0.06300   0.07127   0.07804   0.08369   0.09635
  Beta virt. eigenvalues --    0.11140   0.11759   0.12271   0.12810   0.13520

 Mulliken charges and spin densities:
               1          2
     1  N   -0.300682   0.333810
     2  N   -0.235793  -0.054359
     3  C   -0.165346   0.324571
     4  C   -0.198998  -0.134363
     5  N   -0.491401   0.239395
     6  H    0.228455  -0.013665
     7  H    0.201345   0.003598
     8  H    0.477477   0.003639
     9  C    0.770571   0.171991
    10  O   -0.715990   0.101033
    11  O   -0.603778   0.017795
    12  H    0.468825   0.000018
    13  O   -0.912178   0.005251
    14  H    0.436604   0.000029
    15  H    0.479244   0.000048
    16  O   -0.883949   0.001462
    17  H    0.445596  -0.000253
 Sum of Mulliken charges =  -1.00000   1.00000

 Dipole moment (field-independent basis, Debye):
    X=              0.2378    Y=             -2.9958    Z=             -0.1168  Tot=              3.0075
 Quadrupole moment (field-independent basis, Debye-Ang):
   XX=            -70.7025   YY=            -97.3370   ZZ=            -57.9518
   XY=              6.7796   XZ=              0.0395   YZ=             -1.0555

  Exact polarizability: 136.931   0.627 176.852  -3.736  13.831  85.789
 Approx polarizability: 110.277  -3.176 131.243  -3.758  10.328  73.776

                      1                      2                      3
                      A                      A                      A
 Frequencies --     47.2015                48.8577                88.3712
 Red. masses --      6.0825                 6.2792                 5.9968
 Frc consts  --      0.0080                 0.0088                 0.0276
 IR Inten    --      9.3257                 4.3264                 0.1635

                      4                      5                      6
                      A                      A                      A
 Frequencies --    129.4104               145.1205               157.0253
 Red. masses --      6.1664                 7.8841                 7.2779
 Frc consts  --      0.0608                 0.0978                 0.1057
 IR Inten    --     13.4400                37.3256                12.4405

                      7                      8                      9
                      A                      A                      A
 Frequencies --    179.1540               191.6840               238.7507
 Red. masses --      6.1790                 4.8267                 5.9657
 Frc consts  --      0.1168                 0.1045                 0.2004
 IR Inten    --     44.3377                67.3615                26.5597

                     10                     11                     12
                      A                      A                      A
 Frequencies --    255.8694               306.5306               402.4818
 Red. masses --      1.0784                 1.2238                 1.0933
 Frc consts  --      0.0416                 0.0677                 0.1043
 IR Inten    --    307.4900               163.6153                23.0259

                     13                     14                     15
                      A                      A                      A
 Frequencies --    450.7754               456.0713               494.9493
 Red. masses --      3.7810                 2.0418                 2.4257
 Frc consts  --      0.4527                 0.2502                 0.3501
 IR Inten    --     18.3846                21.7404               178.3049

                     16                     17                     18
                      A                      A                      A
 Frequencies --    552.8049               573.2887               577.6300
 Red. masses --      3.3198                 1.2515                 1.2179
 Frc consts  --      0.5977                 0.2423                 0.2394
 IR Inten    --    205.6530               220.8590               130.3877

                     19                     20                     21
                      A                      A                      A
 Frequencies --    622.5932               644.1630               720.5765
 Red. masses --      5.4514                 4.1719                 1.5023
 Frc consts  --      1.2450                 1.0199                 0.4596
 IR Inten    --     43.1078               144.5170               175.3083

                     22                     23                     24
                      A                      A                      A
 Frequencies --    746.1611               894.7638               899.4210
 Red. masses --      3.5257                 1.1989                 1.1177
 Frc consts  --      1.1565                 0.5655                 0.5327
 IR Inten    --     78.1983                70.7289                71.1486

                     25                     26                     27
                      A                      A                      A
 Frequencies --    918.3346               951.4763              1048.7595
 Red. masses --      4.8436                 5.4448                 2.1246
 Frc consts  --      2.4067                 2.9042                 1.3768
 IR Inten    --     63.2093                14.5613               290.7853

                     28                     29                     30
                      A                      A                      A
 Frequencies --   1096.6065              1120.0570              1190.2490
 Red. masses --      3.4271                 1.9896                 1.6061
 Frc consts  --      2.4282                 1.4706                 1.3406
 IR Inten    --    205.7422               294.9425               536.1197

                     31                     32                     33
                      A                      A                      A
 Frequencies --   1226.4242              1287.0151              1401.7998
 Red. masses --      3.3016                 4.5612                 3.3734
 Frc consts  --      2.9258                 4.4514                 3.9057
 IR Inten    --    152.3213               142.6215               121.8686

                     34                     35                     36
                      A                      A                      A
 Frequencies --   1492.1214              1506.7495              1582.7513
 Red. masses --      4.2513                 8.5042                 1.0746
 Frc consts  --      5.5767                11.3754                 1.5860
 IR Inten    --    169.2637               250.3114               106.9532

                     37                     38                     39
                      A                      A                      A
 Frequencies --   1601.8298              1674.1069              3196.6615
 Red. masses --      1.0740                 9.3948                 1.0709
 Frc consts  --      1.6236                15.5133                 6.4474
 IR Inten    --    143.7160              1735.7504              2413.2773

                     40                     41                     42
                      A                      A                      A
 Frequencies --   3290.1665              3342.6398              3469.7053
 Red. masses --      1.0966                 1.1008                 1.0701
 Frc consts  --      6.9943                 7.2468                 7.5902
 IR Inten    --      4.2005                15.9135               986.6286

                     43                     44                     45
                      A                      A                      A
 Frequencies --   3612.2637              3887.4569              3893.9683
 Red. masses --      1.0606                 1.0664                 1.0695
 Frc consts  --      8.1538                 9.4952                 9.5548
 IR Inten    --    747.2973               200.0462               131.7512

 - Thermochemistry -
 -------------------
 Temperature   298.150 Kelvin.  Pressure   1.00000 Atm.
 Atom     1 has atomic number  7 and mass  14.00307

 Molecular mass:   149.04366 amu.
 Principal axes and moments of inertia in atomic units:
                           1         2         3
     Eigenvalues --  1274.557291739.701232649.85047
           X            0.99989   0.01467  -0.00093
           Y           -0.01468   0.99987  -0.00725
           Z            0.00082   0.00727   0.99997
 This molecule is an asymmetric top.
 Rotational symmetry number  1.
 Warning -- assumption of classical behavior for rotation
           may cause significant error
 Rotational temperatures (Kelvin)      0.06796     0.04979     0.03269
 Rotational constants (GHZ):           1.41597     1.03739     0.68107
 Zero-point vibrational energy     314706.4 (Joules/Mol)
                                   75.21663 (Kcal/Mol)
 Warning -- explicit consideration of  18 degrees of freedom as
           vibrations may cause significant error
 Vibrational temperatures:     67.91    70.30   127.15   186.19   208.80
          (Kelvin)            225.92   257.76   275.79   343.51   368.14
                              441.03   579.08   648.57   656.18   712.12
                              795.36   824.83   831.08   895.77   926.81
                             1036.75  1073.56  1287.37  1294.07  1321.28
                             1368.96  1508.93  1577.77  1611.51  1712.50
                             1764.55  1851.73  2016.88  2146.83  2167.88
                             2277.23  2304.68  2408.67  4599.28  4733.82
                             4809.31  4992.13  5197.24  5593.18  5602.55

 Zero-point correction=                           0.119865 (Hartree/Particle)
 Thermal correction to Energy=                    0.132088
 Thermal correction to Enthalpy=                  0.133032
 Thermal correction to Gibbs Free Energy=         0.080491
 Sum of electronic and zero-point Energies=           -583.474302
 Sum of electronic and thermal Energies=              -583.462080
 Sum of electronic and thermal Enthalpies=            -583.461136
 Sum of electronic and thermal Free Energies=         -583.513677

                     E (Thermal)             CV                S
                      KCal/Mol        Cal/Mol-Kelvin    Cal/Mol-Kelvin
 Total                   82.886             42.458            110.583
 Electronic               0.000              0.000              1.377
 Translational            0.889              2.981             40.908
 Rotational               0.889              2.981             30.153
 Vibrational             81.109             36.496             38.145
 Vibration     1          0.595              1.979              4.931
 Vibration     2          0.595              1.978              4.863
 Vibration     3          0.601              1.957              3.696
 Vibration     4          0.612              1.924              2.955
 Vibration     5          0.617              1.908              2.735
 Vibration     6          0.621              1.895              2.585
 Vibration     7          0.629              1.868              2.337
 Vibration     8          0.634              1.851              2.211
 Vibration     9          0.657              1.781              1.812
 Vibration    10          0.666              1.753              1.690
 Vibration    11          0.697              1.661              1.381
 Vibration    12          0.768              1.465              0.954
 Vibration    13          0.810              1.359              0.793
 Vibration    14          0.814              1.347              0.778
 Vibration    15          0.851              1.261              0.671
 Vibration    16          0.908              1.134              0.538
 Vibration    17          0.930              1.089              0.498
 Vibration    18          0.934              1.080              0.490

                           ! Non-Optimized Parameters !
 Normal termination of Gaussian 16 at Tue Jul 11 23:01:08 2023.
