 Gaussian 16, Revision A.03,
 Gaussian 16:  ES64L-G16RevA.03 25-Dec-2016

 -----------------------------------------------------
 # opt freq 6-31+g(d,p) m062x scrf=(SMD,solvent=water)
 -----------------------------------------------------

 ----
 test
 ----
 Symbolic Z-matrix:
 Charge = -1 Multiplicity = 2

 SCF Done:  E(UM062X) =  -507.090650222     A.U. after   18 cycles
 SCF Done:  E(UM062X) =  -507.137870120     A.U. after   15 cycles
 SCF Done:  E(UM062X) =  -507.162674071     A.U. after   16 cycles
 SCF Done:  E(UM062X) =  -507.173735027     A.U. after   16 cycles
 SCF Done:  E(UM062X) =  -507.178328746     A.U. after   16 cycles
 SCF Done:  E(UM062X) =  -507.182068725     A.U. after   15 cycles
 SCF Done:  E(UM062X) =  -507.184271009     A.U. after   15 cycles
 SCF Done:  E(UM062X) =  -507.185921688     A.U. after   15 cycles
 SCF Done:  E(UM062X) =  -507.187300886     A.U. after   15 cycles
 SCF Done:  E(UM062X) =  -507.188373443     A.U. after   14 cycles
 SCF Done:  E(UM062X) =  -507.191240044     A.U. after   12 cycles
 SCF Done:  E(UM062X) =  -507.191242601     A.U. after   12 cycles
 SCF Done:  E(UM062X) =  -507.191243332     A.U. after   10 cycles
 SCF Done:  E(UM062X) =  -507.191243573     A.U. after   10 cycles
 SCF Done:  E(UM062X) =  -507.191243589     A.U. after   10 cycles
 SCF Done:  E(UM062X) =  -507.191244037     A.U. after   10 cycles
 SCF Done:  E(UM062X) =  -507.191244523     A.U. after   10 cycles
 SCF Done:  E(UM062X) =  -507.191245117     A.U. after    9 cycles
 SCF Done:  E(UM062X) =  -507.191245458     A.U. after   10 cycles
 Optimization completed.
    -- Stationary point found.
 Normal termination of Gaussian 16 at Tue Jul 11 11:36:01 2023.

 ----------------------------------------------------------------------
 #N Geom=AllCheck Guess=TCheck SCRF=Check GenChk UM062X/6-31+G(d,p) Fre
 q
 ----------------------------------------------------------------------

 Structure from the checkpoint file:  "/scratch/gongke2021/RC/Gau-9996.chk"
 ----
 test
 ----
 Charge = -1 Multiplicity = 2

                         Standard orientation:
 ---------------------------------------------------------------------
 Center     Atomic      Atomic             Coordinates (Angstroms)
 Number     Number       Type             X           Y           Z
 ---------------------------------------------------------------------
      1          7           0       -0.381771   -0.972073    0.434225
      2          7           0       -0.382681    0.334422   -0.088489
      3          6           0       -1.705158    0.659523   -0.334743
      4          6           0       -2.423750   -0.490569   -0.119022
      5          7           0       -1.639387   -1.514361    0.271920
      6          1           0       -1.996226    1.647631   -0.650058
      7          1           0       -3.487829   -0.631800   -0.243324
      8          1           0        0.377103   -1.549323    0.060926
      9          6           0        0.710844    1.213614    0.110640
     10          8           0        0.502916    2.415321   -0.174655
     11          8           0        1.777093    0.681798    0.526914
     12          1           0        2.662982   -1.818410   -1.289039
     13          8           0        2.402845   -1.843734   -0.359697
     14          1           0        2.316401   -0.906498   -0.083847
 ---------------------------------------------------------------------

 SCF Done:  E(UM062X) =  -507.191245458     A.U. after    1 cycles

 The electronic state is 2-A.
 Alpha  occ. eigenvalues --  -19.63840 -19.61514 -19.61116 -14.83952 -14.83623
 Alpha  occ. eigenvalues --  -14.78457 -10.69172 -10.58210 -10.57573  -1.21369
 Alpha  occ. eigenvalues --   -1.16737  -1.12067  -1.08766  -1.00440  -0.92120
 Alpha  occ. eigenvalues --   -0.77427  -0.69781  -0.67968  -0.61364  -0.58387
 Alpha  occ. eigenvalues --   -0.56804  -0.53814  -0.52502  -0.50997  -0.49561
 Alpha  occ. eigenvalues --   -0.48250  -0.46571  -0.39661  -0.39172  -0.38295
 Alpha  occ. eigenvalues --   -0.37021  -0.35957  -0.34859  -0.33953  -0.18972
 Alpha virt. eigenvalues --    0.02680   0.04146   0.05172   0.05548   0.05615
 Alpha virt. eigenvalues --    0.06520   0.07403   0.08576   0.09755   0.10608
 Alpha virt. eigenvalues --    0.12184   0.12385   0.13017   0.14297   0.15645

  Beta  occ. eigenvalues --  -19.63836 -19.61467 -19.61053 -14.83576 -14.83319
  Beta  occ. eigenvalues --  -14.77884 -10.69158 -10.57983 -10.57681  -1.20639
  Beta  occ. eigenvalues --   -1.16071  -1.12052  -1.08590  -0.99023  -0.91166
  Beta  occ. eigenvalues --   -0.76089  -0.69286  -0.67191  -0.61144  -0.57088
  Beta  occ. eigenvalues --   -0.56095  -0.53096  -0.52059  -0.50493  -0.49183
  Beta  occ. eigenvalues --   -0.46726  -0.46474  -0.39483  -0.38261  -0.36173
  Beta  occ. eigenvalues --   -0.34888  -0.34200  -0.33453  -0.32403
  Beta virt. eigenvalues --   -0.02112   0.02408   0.04109   0.04913   0.05246
  Beta virt. eigenvalues --    0.06334   0.07086   0.07193   0.08386   0.09313
  Beta virt. eigenvalues --    0.11063   0.11627   0.12619   0.13021   0.14307

 Mulliken charges and spin densities:
               1          2
     1  N   -0.215570   0.183525
     2  N   -0.232191   0.104941
     3  C   -0.162201   0.359033
     4  C   -0.184598  -0.147543
     5  N   -0.343097   0.415836
     6  H    0.239532  -0.014090
     7  H    0.216711   0.003785
     8  H    0.390359   0.015837
     9  C    0.838222   0.019867
    10  O   -0.747931   0.032670
    11  O   -0.786760   0.024952
    12  H    0.430798  -0.000067
    13  O   -0.906853   0.001186
    14  H    0.463578   0.000068
 Sum of Mulliken charges =  -1.00000   1.00000

 Dipole moment (field-independent basis, Debye):
    X=             -4.9202    Y=             -2.9790    Z=             -4.0638  Tot=              7.0425
 Quadrupole moment (field-independent basis, Debye-Ang):
   XX=            -61.8452   YY=            -82.5329   ZZ=            -55.1116
   XY=             -9.0594   XZ=             -5.0570   YZ=              4.4769

  Exact polarizability: 127.903   9.366 129.385   8.407 -11.195  73.104
 Approx polarizability:  99.476   3.239 106.593   6.344  -9.761  64.665

                      1                      2                      3
                      A                      A                      A
 Frequencies --     51.4056                90.9863               102.9785
 Red. masses --      6.2006                 5.2200                 8.5435
 Frc consts  --      0.0097                 0.0255                 0.0534
 IR Inten    --      1.9004                13.0464                16.9542

                      4                      5                      6
                      A                      A                      A
 Frequencies --    125.6783               174.0911               219.7442
 Red. masses --      6.4416                 7.1199                 1.1122
 Frc consts  --      0.0599                 0.1271                 0.0316
 IR Inten    --     12.2943                22.9916               227.4425

                      7                      8                      9
                      A                      A                      A
 Frequencies --    239.9163               332.2141               396.2545
 Red. masses --      7.5187                 1.1096                 3.8806
 Frc consts  --      0.2550                 0.0722                 0.3590
 IR Inten    --     10.1053               145.9034                69.7395

                     10                     11                     12
                      A                      A                      A
 Frequencies --    446.9698               555.1722               587.7937
 Red. masses --      9.9917                 6.1108                 3.3591
 Frc consts  --      1.1761                 1.1097                 0.6838
 IR Inten    --      3.3112                29.2391                16.9584

                     13                     14                     15
                      A                      A                      A
 Frequencies --    682.8696               701.6500               759.8888
 Red. masses --      1.2663                 1.1697                 2.9535
 Frc consts  --      0.3479                 0.3393                 1.0048
 IR Inten    --    123.3830               511.4202               209.8168

                     16                     17                     18
                      A                      A                      A
 Frequencies --    776.3020               799.5217               909.7784
 Red. masses --     10.5918                 2.7430                 1.6458
 Frc consts  --      3.7608                 1.0331                 0.8026
 IR Inten    --     53.1832               128.0624                20.3699

                     19                     20                     21
                      A                      A                      A
 Frequencies --    923.8425               968.0482              1082.5935
 Red. masses --      2.7636                 4.1268                 1.4407
 Frc consts  --      1.3897                 2.2785                 0.9949
 IR Inten    --     28.2573                53.4584                35.0450

                     22                     23                     24
                      A                      A                      A
 Frequencies --   1085.4584              1210.9974              1250.4801
 Red. masses --      2.4686                 3.1541                 4.9383
 Frc consts  --      1.7137                 2.7252                 4.5497
 IR Inten    --    266.4196                21.9800                 0.3633

                     25                     26                     27
                      A                      A                      A
 Frequencies --   1313.9352              1360.1334              1372.9711
 Red. masses --      7.3349                 6.8651                 1.7044
 Frc consts  --      7.4609                 7.4827                 1.8930
 IR Inten    --    673.0895              1160.2505               197.1039

                     28                     29                     30
                      A                      A                      A
 Frequencies --   1481.3996              1535.3433              1581.2875
 Red. masses --      1.6723                 4.3374                 1.0914
 Frc consts  --      2.1622                 6.0241                 1.6079
 IR Inten    --      7.2205                21.2931                72.8067

                     31                     32                     33
                      A                      A                      A
 Frequencies --   1637.0347              3299.7108              3344.5444
 Red. masses --     10.6070                 1.0969                 1.1011
 Frc consts  --     16.7478                 7.0365                 7.2566
 IR Inten    --   1544.4012                 2.5808                28.1241

                     34                     35                     36
                      A                      A                      A
 Frequencies --   3442.9352              3523.9387              3899.5339
 Red. masses --      1.0822                 1.0645                 1.0686
 Frc consts  --      7.5585                 7.7883                 9.5739
 IR Inten    --    278.7413              1114.5640               173.0837

 - Thermochemistry -
 -------------------
 Temperature   298.150 Kelvin.  Pressure   1.00000 Atm.
 Atom     1 has atomic number  7 and mass  14.00307

 Molecular mass:   131.03309 amu.
 Principal axes and moments of inertia in atomic units:
                           1         2         3
     Eigenvalues --   897.162721229.940162023.09382
           X            0.99573  -0.09215  -0.00477
           Y            0.09218   0.99572   0.00672
           Z            0.00413  -0.00713   0.99997
 This molecule is an asymmetric top.
 Rotational symmetry number  1.
 Warning -- assumption of classical behavior for rotation
           may cause significant error
 Rotational temperatures (Kelvin)      0.09654     0.07042     0.04281
 Rotational constants (GHZ):           2.01161     1.46734     0.89207
 Zero-point vibrational energy     252815.2 (Joules/Mol)
                                   60.42429 (Kcal/Mol)
 Warning -- explicit consideration of  12 degrees of freedom as
           vibrations may cause significant error
 Vibrational temperatures:     73.96   130.91   148.16   180.82   250.48
          (Kelvin)            316.16   345.19   477.98   570.12   643.09
                              798.77   845.70   982.50  1009.52  1093.31
                             1116.93  1150.33  1308.97  1329.20  1392.81
                             1557.61  1561.73  1742.36  1799.16  1890.46
                             1956.93  1975.40  2131.40  2209.02  2275.12
                             2355.33  4747.55  4812.05  4953.62  5070.16
                             5610.56

 Zero-point correction=                           0.096292 (Hartree/Particle)
 Thermal correction to Energy=                    0.105828
 Thermal correction to Enthalpy=                  0.106772
 Thermal correction to Gibbs Free Energy=         0.060171
 Sum of electronic and zero-point Energies=           -507.094953
 Sum of electronic and thermal Energies=              -507.085418
 Sum of electronic and thermal Enthalpies=            -507.084473
 Sum of electronic and thermal Free Energies=         -507.131075

                     E (Thermal)             CV                S
                      KCal/Mol        Cal/Mol-Kelvin    Cal/Mol-Kelvin
 Total                   66.408             32.581             98.081
 Electronic               0.000              0.000              1.377
 Translational            0.889              2.981             40.524
 Rotational               0.889              2.981             29.192
 Vibrational             64.631             26.620             26.988
 Vibration     1          0.596              1.977              4.763
 Vibration     2          0.602              1.956              3.639
 Vibration     3          0.605              1.947              3.397
 Vibration     4          0.611              1.927              3.011
 Vibration     5          0.627              1.874              2.391
 Vibration     6          0.647              1.811              1.961
 Vibration     7          0.657              1.779              1.803
 Vibration     8          0.714              1.611              1.249
 Vibration     9          0.763              1.478              0.977
 Vibration    10          0.806              1.368              0.805
 Vibration    11          0.911              1.128              0.534
 Vibration    12          0.945              1.058              0.471

                           ! Non-Optimized Parameters !
 Normal termination of Gaussian 16 at Tue Jul 11 11:38:35 2023.
