 Gaussian 16, Revision A.03,
 Gaussian 16:  ES64L-G16RevA.03 25-Dec-2016

 -----------------------------------------------------
 # opt freq 6-31+g(d,p) m062x scrf=(SMD,solvent=water)
 -----------------------------------------------------

 ----
 test
 ----
 Symbolic Z-matrix:
 Charge =  0 Multiplicity = 1

 SCF Done:  E(RM062X) =  -430.617639532     A.U. after   14 cycles
 SCF Done:  E(RM062X) =  -430.641051967     A.U. after   13 cycles
 SCF Done:  E(RM062X) =  -430.652102641     A.U. after   13 cycles
 SCF Done:  E(RM062X) =  -430.552888084     A.U. after   15 cycles
 SCF Done:  E(RM062X) =  -430.657097057     A.U. after   14 cycles
 SCF Done:  E(RM062X) =  -430.662080413     A.U. after   12 cycles
 SCF Done:  E(RM062X) =  -430.665903223     A.U. after   13 cycles
 SCF Done:  E(RM062X) =  -430.665115315     A.U. after   13 cycles
 SCF Done:  E(RM062X) =  -430.667590100     A.U. after   12 cycles
 SCF Done:  E(RM062X) =  -430.667771251     A.U. after   11 cycles
 SCF Done:  E(RM062X) =  -430.667864809     A.U. after   11 cycles
 SCF Done:  E(RM062X) =  -430.667902721     A.U. after   10 cycles
 SCF Done:  E(RM062X) =  -430.667916530     A.U. after   10 cycles
 SCF Done:  E(RM062X) =  -430.667920339     A.U. after   10 cycles
 SCF Done:  E(RM062X) =  -430.667921977     A.U. after    9 cycles
 SCF Done:  E(RM062X) =  -430.667922328     A.U. after    8 cycles
 Optimization completed.
    -- Stationary point found.
 Normal termination of Gaussian 16 at Thu Jul  6 20:51:53 2023.

 ----------------------------------------------------------------------
 #N Geom=AllCheck Guess=TCheck SCRF=Check GenChk RM062X/6-31+G(d,p) Fre
 q
 ----------------------------------------------------------------------

 Structure from the checkpoint file:  "/scratch/gongke2021/PC/Gau-5548.chk"
 ----
 test
 ----
 Charge =  0 Multiplicity = 1

                         Standard orientation:
 ---------------------------------------------------------------------
 Center     Atomic      Atomic             Coordinates (Angstroms)
 Number     Number       Type             X           Y           Z
 ---------------------------------------------------------------------
      1          7           0       -0.706859   -1.097490   -0.000131
      2          7           0       -0.044661    0.077170    0.000285
      3          6           0       -0.910882    1.126761    0.000264
      4          6           0       -2.139141    0.529555   -0.000025
      5          7           0       -1.964261   -0.830441   -0.000247
      6          1           0       -0.579648    2.153435    0.000662
      7          1           0       -3.120770    0.975239   -0.000067
      8          1           0        1.333351   -1.797527   -0.000029
      9          6           0        1.374685    0.122271   -0.000002
     10          8           0        1.960912    1.173411   -0.000399
     11          8           0        1.967783   -1.054329    0.000232
 ---------------------------------------------------------------------

 SCF Done:  E(RM062X) =  -430.667922328     A.U. after    1 cycles

 The electronic state is 1-A.
 Alpha  occ. eigenvalues --  -19.72282 -19.67397 -14.88720 -14.85963 -14.82101
 Alpha  occ. eigenvalues --  -10.76168 -10.61641 -10.59119  -1.29088  -1.24125
 Alpha  occ. eigenvalues --   -1.18794  -1.04944  -0.93158  -0.80628  -0.74059
 Alpha  occ. eigenvalues --   -0.72934  -0.67209  -0.61083  -0.58305  -0.56214
 Alpha  occ. eigenvalues --   -0.54232  -0.53535  -0.50375  -0.44815  -0.43167
 Alpha  occ. eigenvalues --   -0.41552  -0.38960  -0.37174  -0.34255
 Alpha virt. eigenvalues --   -0.02868   0.01759   0.03660   0.04438   0.04504
 Alpha virt. eigenvalues --    0.05747   0.05924   0.06447   0.08049   0.08595
 Alpha virt. eigenvalues --    0.09544   0.10709   0.12511   0.12912   0.14008

 Mulliken charges:
               1
     1  N   -0.182040
     2  N   -0.091902
     3  C   -0.038411
     4  C   -0.237559
     5  N   -0.217804
     6  H    0.274379
     7  H    0.237281
     8  H    0.471740
     9  C    0.800249
    10  O   -0.515320
    11  O   -0.500613
 Sum of Mulliken charges =   0.00000

 Dipole moment (field-independent basis, Debye):
    X=             -2.1416    Y=              1.1292    Z=              0.0016  Tot=              2.4211
 Quadrupole moment (field-independent basis, Debye-Ang):
   XX=            -54.0842   YY=            -43.5535   ZZ=            -45.4215
   XY=            -12.7083   XZ=             -0.0002   YZ=              0.0027

  Exact polarizability: 102.281   5.767  93.291   0.002   0.000  45.729
 Approx polarizability:  89.402   5.916  88.875   0.003   0.000  43.587

                      1                      2                      3
                      A                      A                      A
 Frequencies --    101.8554               165.4308               237.0080
 Red. masses --      6.2537                 7.8260                 6.5856
 Frc consts  --      0.0382                 0.1262                 0.2180
 IR Inten    --     40.8437                 5.3123                48.3813

                      4                      5                      6
                      A                      A                      A
 Frequencies --    456.0306               504.5643               555.3224
 Red. masses --      8.0700                 1.1226                 7.2468
 Frc consts  --      0.9888                 0.1684                 1.3167
 IR Inten    --      0.4035               220.8531                 7.3215

                      7                      8                      9
                      A                      A                      A
 Frequencies --    625.1797               716.3746               756.6387
 Red. masses --      3.7630                 8.3573                 8.1402
 Frc consts  --      0.8665                 2.5270                 2.7458
 IR Inten    --      0.4878                 1.1058                74.3895

                     10                     11                     12
                      A                      A                      A
 Frequencies --    764.6328               820.6925               926.2122
 Red. masses --      8.9265                 1.2603                 1.3737
 Frc consts  --      3.0749                 0.5001                 0.6943
 IR Inten    --     45.9214                85.3181                 2.3134

                     13                     14                     15
                      A                      A                      A
 Frequencies --    968.4055              1034.8833              1081.9762
 Red. masses --      5.3628                 6.7329                 1.3614
 Frc consts  --      2.9632                 4.2485                 0.9390
 IR Inten    --      1.6616               168.4209                96.7202

                     16                     17                     18
                      A                      A                      A
 Frequencies --   1147.5385              1232.1194              1266.0555
 Red. masses --      1.9366                 4.6626                 3.9397
 Frc consts  --      1.5025                 4.1705                 3.7207
 IR Inten    --     17.1719                64.4661               156.3276

                     19                     20                     21
                      A                      A                      A
 Frequencies --   1319.0191              1347.9531              1422.2753
 Red. masses --      1.7004                 4.0071                 4.9373
 Frc consts  --      1.7430                 4.2897                 5.8845
 IR Inten    --    439.2391               412.0206               270.1913

                     22                     23                     24
                      A                      A                      A
 Frequencies --   1500.8149              1581.3408              1846.9112
 Red. masses --      7.0470                 5.1851                10.1130
 Frc consts  --      9.3521                 7.6393                20.3247
 IR Inten    --    358.3424                 4.9071              1080.6007

                     25                     26                     27
                      A                      A                      A
 Frequencies --   3329.2414              3347.2226              3708.1728
 Red. masses --      1.0955                 1.1109                 1.0666
 Frc consts  --      7.1540                 7.3333                 8.6409
 IR Inten    --     19.8583                26.8401               352.4266

 - Thermochemistry -
 -------------------
 Temperature   298.150 Kelvin.  Pressure   1.00000 Atm.
 Atom     1 has atomic number  7 and mass  14.00307

 Molecular mass:   113.02253 amu.
 Principal axes and moments of inertia in atomic units:
                           1         2         3
     Eigenvalues --   335.068611014.782471349.85103
           X            0.99939  -0.03506  -0.00000
           Y            0.03506   0.99939   0.00001
           Z            0.00000  -0.00002   1.00000
 This molecule is an asymmetric top.
 Rotational symmetry number  1.
 Rotational temperatures (Kelvin)      0.25850     0.08535     0.06417
 Rotational constants (GHZ):           5.38618     1.77845     1.33699
 Zero-point vibrational energy     195971.5 (Joules/Mol)
                                   46.83831 (Kcal/Mol)
 Warning -- explicit consideration of   6 degrees of freedom as
           vibrations may cause significant error
 Vibrational temperatures:    146.55   238.02   341.00   656.13   725.96
          (Kelvin)            798.99   899.49  1030.70  1088.63  1100.14
                             1180.79  1332.61  1393.32  1488.97  1556.72
                             1651.05  1772.75  1821.57  1897.77  1939.40
                             2046.34  2159.34  2275.20  2657.29  4790.04
                             4815.91  5335.23

 Zero-point correction=                           0.074642 (Hartree/Particle)
 Thermal correction to Energy=                    0.080733
 Thermal correction to Enthalpy=                  0.081677
 Thermal correction to Gibbs Free Energy=         0.043977
 Sum of electronic and zero-point Energies=           -430.593281
 Sum of electronic and thermal Energies=              -430.587189
 Sum of electronic and thermal Enthalpies=            -430.586245
 Sum of electronic and thermal Free Energies=         -430.623946

                     E (Thermal)             CV                S
                      KCal/Mol        Cal/Mol-Kelvin    Cal/Mol-Kelvin
 Total                   50.661             21.746             79.347
 Electronic               0.000              0.000              0.000
 Translational            0.889              2.981             40.083
 Rotational               0.889              2.981             27.620
 Vibrational             48.883             15.784             11.645
 Vibration     1          0.604              1.948              3.418
 Vibration     2          0.624              1.885              2.487
 Vibration     3          0.656              1.784              1.825
 Vibration     4          0.814              1.348              0.778
 Vibration     5          0.860              1.240              0.647
 Vibration     6          0.911              1.128              0.533

 Optimization completed.
    -- Stationary point found.
 Normal termination of Gaussian 16 at Thu Jul  6 20:52:36 2023.
