 Gaussian 16, Revision A.03,
 Gaussian 16:  ES64L-G16RevA.03 25-Dec-2016

 -----------------------------------------------------
 # opt freq 6-31+g(d,p) m062x scrf=(SMD,solvent=water)
 -----------------------------------------------------

 ----
 test
 ----
 Symbolic Z-matrix:
 Charge =  0 Multiplicity = 1

 SCF Done:  E(RM062X) =  -242.159259212     A.U. after   12 cycles
 SCF Done:  E(RM062X) =  -242.159333461     A.U. after   11 cycles
 SCF Done:  E(RM062X) =  -242.159375616     A.U. after   10 cycles
 SCF Done:  E(RM062X) =  -242.159380923     A.U. after    9 cycles
 SCF Done:  E(RM062X) =  -242.159383679     A.U. after    9 cycles
 Optimization completed.
    -- Stationary point found.
 Normal termination of Gaussian 16 at Sun Jul  9 00:09:23 2023.

 ----------------------------------------------------------------------
 #N Geom=AllCheck Guess=TCheck SCRF=Check GenChk RM062X/6-31+G(d,p) Fre
 q
 ----------------------------------------------------------------------

 Structure from the checkpoint file:  "/scratch/gongke2021/2-H-Tz/Gau-7336.chk"
 ----
 test
 ----
 Charge =  0 Multiplicity = 1

                         Standard orientation:
 ---------------------------------------------------------------------
 Center     Atomic      Atomic             Coordinates (Angstroms)
 Number     Number       Type             X           Y           Z
 ---------------------------------------------------------------------
      1          7           0        1.051431   -0.000536    0.000052
      2          7           0        0.354619   -1.118852    0.000037
      3          6           0       -0.911147   -0.699517   -0.000098
      4          6           0       -0.910346    0.700448    0.000141
      5          7           0        0.355870    1.118482   -0.000157
      6          1           0       -1.735820   -1.395259   -0.000143
      7          1           0       -1.734237    1.397099    0.000221
      8          1           0        2.065576   -0.001080    0.000138
 ---------------------------------------------------------------------

 SCF Done:  E(RM062X) =  -242.159383679     A.U. after    1 cycles

 The electronic state is 1-A.
 Alpha  occ. eigenvalues --  -14.87877 -14.81227 -14.81223 -10.58056 -10.57981
 Alpha  occ. eigenvalues --   -1.23780  -1.00830  -0.93083  -0.71997  -0.71621
 Alpha  occ. eigenvalues --   -0.62941  -0.56215  -0.52120  -0.51361  -0.40686
 Alpha  occ. eigenvalues --   -0.38339  -0.36070  -0.33459
 Alpha virt. eigenvalues --    0.02650   0.02804   0.04334   0.05081   0.07012
 Alpha virt. eigenvalues --    0.07367   0.07867   0.07958   0.09824   0.12683
 Alpha virt. eigenvalues --    0.14192   0.14542   0.17250   0.17316   0.21332

 Mulliken charges:
               1
     1  N   -0.142178
     2  N   -0.205546
     3  C   -0.156607
     4  C   -0.156677
     5  N   -0.205491
     6  H    0.223151
     7  H    0.223122
     8  H    0.420226
 Sum of Mulliken charges =  -0.00000

 Dipole moment (field-independent basis, Debye):
    X=             -0.2541    Y=              0.0001    Z=              0.0004  Tot=              0.2541
 Quadrupole moment (field-independent basis, Debye-Ang):
   XX=            -18.9365   YY=            -34.3602   ZZ=            -30.8494
   XY=             -0.0074   XZ=              0.0005   YZ=              0.0010

  Exact polarizability:  65.978  -0.000  63.341  -0.001   0.001  34.969
 Approx polarizability:  62.746   0.000  60.220  -0.001   0.000  32.794

                      1                      2                      3
                      A                      A                      A
 Frequencies --    603.9111               684.3936               724.1534
 Red. masses --      1.5933                 3.5209                 2.9423
 Frc consts  --      0.3424                 0.9717                 0.9091
 IR Inten    --     88.1987                 0.0000                71.5108

                      4                      5                      6
                      A                      A                      A
 Frequencies --    857.7339               924.6210               945.0807
 Red. masses --      1.1684                 1.3938                 6.8004
 Frc consts  --      0.5064                 0.7020                 3.5787
 IR Inten    --    111.6974                 0.0002                46.9136

                      7                      8                      9
                      A                      A                      A
 Frequencies --    967.3903              1102.7272              1154.5895
 Red. masses --      4.7385                 1.4425                 1.5269
 Frc consts  --      2.6127                 1.0335                 1.1993
 IR Inten    --     13.8812                 5.5381                89.4803

                     10                     11                     12
                      A                      A                      A
 Frequencies --   1175.0406              1298.6150              1323.1620
 Red. masses --      8.0766                 1.5378                 8.4544
 Frc consts  --      6.5703                 1.5279                 8.7209
 IR Inten    --     40.1402                24.7622                 0.5384

                     13                     14                     15
                      A                      A                      A
 Frequencies --   1451.9169              1490.0839              1571.0005
 Red. masses --      3.1606                 3.7201                 2.8444
 Frc consts  --      3.9256                 4.8666                 4.1362
 IR Inten    --      0.7237                17.2948                 0.0203

                     16                     17                     18
                      A                      A                      A
 Frequencies --   3316.8499              3330.9365              3631.2050
 Red. masses --      1.0941                 1.1056                 1.0845
 Frc consts  --      7.0916                 7.2276                 8.4251
 IR Inten    --      1.5189                 2.2536               339.7841

 - Thermochemistry -
 -------------------
 Temperature   298.150 Kelvin.  Pressure   1.00000 Atm.
 Atom     1 has atomic number  7 and mass  14.00307

 Molecular mass:    69.03270 amu.
 Principal axes and moments of inertia in atomic units:
                           1         2         3
     Eigenvalues --   175.91522 181.18119 357.09640
           X            0.00217   1.00000   0.00000
           Y            1.00000  -0.00217   0.00001
           Z           -0.00001  -0.00000   1.00000
 This molecule is an asymmetric top.
 Rotational symmetry number  1.
 Rotational temperatures (Kelvin)      0.49236     0.47805     0.24255
 Rotational constants (GHZ):          10.25915     9.96097     5.05393
 Zero-point vibrational energy     158824.7 (Joules/Mol)
                                   37.96001 (Kcal/Mol)
 Warning -- explicit consideration of   1 degrees of freedom as
           vibrations may cause significant error
 Vibrational temperatures:    868.89   984.69  1041.90  1234.09  1330.32
          (Kelvin)           1359.76  1391.86  1586.58  1661.20  1690.62
                             1868.42  1903.73  2088.98  2143.90  2260.32
                             4772.21  4792.47  5224.49

 Zero-point correction=                           0.060493 (Hartree/Particle)
 Thermal correction to Energy=                    0.064005
 Thermal correction to Enthalpy=                  0.064949
 Thermal correction to Gibbs Free Energy=         0.034367
 Sum of electronic and zero-point Energies=           -242.098891
 Sum of electronic and thermal Energies=              -242.095379
 Sum of electronic and thermal Enthalpies=            -242.094434
 Sum of electronic and thermal Free Energies=         -242.125017

                     E (Thermal)             CV                S
                      KCal/Mol        Cal/Mol-Kelvin    Cal/Mol-Kelvin
 Total                   40.164             11.758             64.367
 Electronic               0.000              0.000              0.000
 Translational            0.889              2.981             38.613
 Rotational               0.889              2.981             23.946
 Vibrational             38.386              5.796              1.807
 Vibration     1          0.962              1.024              0.443

 Optimization completed.
    -- Stationary point found.
 Normal termination of Gaussian 16 at Sun Jul  9 00:09:41 2023.
