 Gaussian 16, Revision A.03,
 Gaussian 16:  ES64L-G16RevA.03 25-Dec-2016

 ----------------------------------------------------------------------
 # opt=(calcfc,ts,noeigentest) freq 6-31+g(d,p) scrf=(smd,solvent=water
 ) integral=grid=ultrafine m062x
 ----------------------------------------------------------------------

 ----
 test
 ----
 Symbolic Z-matrix:
 Charge =  0 Multiplicity = 1

 SCF Done:  E(RM062X) =  -507.052444355     A.U. after   14 cycles
 SCF Done:  E(RM062X) =  -507.064041286     A.U. after   13 cycles
 SCF Done:  E(RM062X) =  -507.070798003     A.U. after   12 cycles
 SCF Done:  E(RM062X) =  -507.073168023     A.U. after   12 cycles
 SCF Done:  E(RM062X) =  -507.073225461     A.U. after   12 cycles
 SCF Done:  E(RM062X) =  -507.072982952     A.U. after   12 cycles
 SCF Done:  E(RM062X) =  -507.072900185     A.U. after   14 cycles
 SCF Done:  E(RM062X) =  -507.073403342     A.U. after   12 cycles
 SCF Done:  E(RM062X) =  -507.073428155     A.U. after   10 cycles
 SCF Done:  E(RM062X) =  -507.073210817     A.U. after   12 cycles
 SCF Done:  E(RM062X) =  -507.073586704     A.U. after   12 cycles
 SCF Done:  E(RM062X) =  -507.073593364     A.U. after   10 cycles
 SCF Done:  E(RM062X) =  -507.073594476     A.U. after    9 cycles
 SCF Done:  E(RM062X) =  -507.073594243     A.U. after   10 cycles
 SCF Done:  E(RM062X) =  -507.073594791     A.U. after    9 cycles
 SCF Done:  E(RM062X) =  -507.073594762     A.U. after    8 cycles
 SCF Done:  E(RM062X) =  -507.073594839     A.U. after    8 cycles
 SCF Done:  E(RM062X) =  -507.073595000     A.U. after    8 cycles
 SCF Done:  E(RM062X) =  -507.073594905     A.U. after    7 cycles
 Optimization completed.
    -- Stationary point found.
 Normal termination of Gaussian 16 at Sat Jul  8 23:49:22 2023.

 ----------------------------------------------------------------------
 #N Geom=AllCheck Guess=TCheck SCRF=Check GenChk RM062X/6-31+G(d,p) Fre
 q
 ----------------------------------------------------------------------

 Structure from the checkpoint file:  "/scratch/gongke2021/TS-2/Gau-27269.chk"
 ----
 test
 ----
 Charge =  0 Multiplicity = 1

                         Standard orientation:
 ---------------------------------------------------------------------
 Center     Atomic      Atomic             Coordinates (Angstroms)
 Number     Number       Type             X           Y           Z
 ---------------------------------------------------------------------
      1          7           0        0.092362   -0.971810   -0.031973
      2          7           0        0.567667    0.273396   -0.003271
      3          6           0        1.919020    0.270248    0.023551
      4          6           0        2.249429   -1.062549    0.009579
      5          7           0        1.097940   -1.791243   -0.024182
      6          1           0        2.501912    1.177203    0.048607
      7          1           0        3.220405   -1.531842    0.021045
      8          1           0       -1.863882   -0.827204   -0.040316
      9          6           0       -0.372912    1.417937   -0.005471
     10          8           0        0.168673    2.526947    0.028302
     11          8           0       -1.567891    1.074405   -0.041083
     12          1           0       -2.619081   -2.139047    0.542374
     13          8           0       -2.708583   -1.374044   -0.058383
     14          1           0       -3.455954   -0.823792    0.247619
 ---------------------------------------------------------------------

 SCF Done:  E(RM062X) =  -507.073594905     A.U. after    1 cycles

 The electronic state is 1-A.
 Alpha  occ. eigenvalues --  -19.76576 -19.63280 -19.63013 -14.86208 -14.84345
 Alpha  occ. eigenvalues --  -14.80682 -10.71199 -10.60052 -10.58024  -1.26473
 Alpha  occ. eigenvalues --   -1.24662  -1.19775  -1.11465  -1.01935  -0.91631
 Alpha  occ. eigenvalues --   -0.76039  -0.72172  -0.70379  -0.70219  -0.65581
 Alpha  occ. eigenvalues --   -0.59098  -0.58108  -0.54136  -0.53472  -0.53165
 Alpha  occ. eigenvalues --   -0.51561  -0.50910  -0.43478  -0.39187  -0.37333
 Alpha  occ. eigenvalues --   -0.36485  -0.36393  -0.35675  -0.32966
 Alpha virt. eigenvalues --   -0.00108   0.02013   0.03762   0.04337   0.04956
 Alpha virt. eigenvalues --    0.05950   0.06290   0.06311   0.07666   0.09534
 Alpha virt. eigenvalues --    0.10514   0.11125   0.11599   0.12718   0.13170

 Mulliken charges:
               1
     1  N   -0.097227
     2  N   -0.206827
     3  C   -0.020313
     4  C   -0.269447
     5  N   -0.327325
     6  H    0.257921
     7  H    0.226123
     8  H    0.550254
     9  C    0.838025
    10  O   -0.668921
    11  O   -0.730881
    12  H    0.500857
    13  O   -0.559948
    14  H    0.507710
 Sum of Mulliken charges =  -0.00000

 Dipole moment (field-independent basis, Debye):
    X=             -5.1962    Y=             -8.7551    Z=              2.1867  Tot=             10.4131
 Quadrupole moment (field-independent basis, Debye-Ang):
   XX=            -18.0140   YY=            -68.2943   ZZ=            -52.5157
   XY=             18.2172   XZ=             -6.1331   YZ=             -4.0086

  Exact polarizability: 111.664   0.854 112.109   0.654   0.377  56.055
 Approx polarizability:  97.855   3.664  98.964   0.706   0.371  52.141

 ******    1 imaginary frequencies (negative Signs) ******

                      1                      2                      3
                      A                      A                      A
 Frequencies --   -317.5846                53.2616                97.9972
 Red. masses --      1.0917                 5.9897                 6.7851
 Frc consts  --      0.0649                 0.0100                 0.0384
 IR Inten    --    164.0669                40.2457                20.1178

                      4                      5                      6
                      A                      A                      A
 Frequencies --    100.7948               169.3957               212.0703
 Red. masses --      3.4692                 7.6258                 4.9380
 Frc consts  --      0.0208                 0.1289                 0.1308
 IR Inten    --      0.9904                 6.7711                96.0576

                      7                      8                      9
                      A                      A                      A
 Frequencies --    243.8777               268.1216               441.9016
 Red. masses --      1.2830                 5.1390                10.6536
 Frc consts  --      0.0450                 0.2177                 1.2257
 IR Inten    --     86.4509                 1.0743                 1.1014

                     10                     11                     12
                      A                      A                      A
 Frequencies --    481.3563               559.8989               642.4474
 Red. masses --      1.0895                 9.5844                 3.7459
 Frc consts  --      0.1487                 1.7702                 0.9109
 IR Inten    --    173.7460                 2.0741                 0.7557

                     13                     14                     15
                      A                      A                      A
 Frequencies --    722.8847               779.2550               794.6055
 Red. masses --      9.3605                12.8709                 7.8555
 Frc consts  --      2.8819                 4.6049                 2.9223
 IR Inten    --      0.6941               392.5564                84.9098

                     16                     17                     18
                      A                      A                      A
 Frequencies --    827.5259               919.0216               974.5612
 Red. masses --      1.2801                 1.3841                 5.3760
 Frc consts  --      0.5165                 0.6888                 3.0083
 IR Inten    --     69.2839                 0.7716                11.0757

                     19                     20                     21
                      A                      A                      A
 Frequencies --   1065.1192              1082.5172              1088.2921
 Red. masses --      1.8573                 1.3500                 1.8258
 Frc consts  --      1.2415                 0.9321                 1.2741
 IR Inten    --     48.9760               367.6483               303.3729

                     22                     23                     24
                      A                      A                      A
 Frequencies --   1163.8386              1265.0177              1328.0449
 Red. masses --      1.9618                 7.6525                 6.3399
 Frc consts  --      1.5656                 7.2151                 6.5881
 IR Inten    --     21.8962               367.8233               274.9473

                     25                     26                     27
                      A                      A                      A
 Frequencies --   1340.1926              1394.9347              1497.0649
 Red. masses --      6.2999                 8.5761                 5.2869
 Frc consts  --      6.6668                 9.8321                 6.9812
 IR Inten    --     96.1862               248.7563                47.8831

                     28                     29                     30
                      A                      A                      A
 Frequencies --   1547.2419              1557.4185              1657.7386
 Red. masses --      1.1299                 4.6056                 1.0564
 Frc consts  --      1.5937                 6.5818                 1.7105
 IR Inten    --    487.1277                12.7269               100.7419

                     31                     32                     33
                      A                      A                      A
 Frequencies --   1750.8352              3176.5792              3323.7150
 Red. masses --      9.8936                 1.0657                 1.0957
 Frc consts  --     17.8689                 6.3356                 7.1314
 IR Inten    --   1590.6369              2161.8658                 8.6946

                     34                     35                     36
                      A                      A                      A
 Frequencies --   3343.8345              3704.5657              3769.7434
 Red. masses --      1.1088                 1.0458                 1.0850
 Frc consts  --      7.3046                 8.4559                 9.0846
 IR Inten    --     18.4949               302.1920               511.7022

 - Thermochemistry -
 -------------------
 Temperature   298.150 Kelvin.  Pressure   1.00000 Atm.
 Atom     1 has atomic number  7 and mass  14.00307

 Molecular mass:   131.03309 amu.
 Principal axes and moments of inertia in atomic units:
                           1         2         3
     Eigenvalues --   920.193511163.523372080.40979
           X            0.99293   0.11850  -0.00633
           Y           -0.11854   0.99294  -0.00532
           Z            0.00566   0.00603   0.99997
 This molecule is an asymmetric top.
 Rotational symmetry number  1.
 Warning -- assumption of classical behavior for rotation
           may cause significant error
 Rotational temperatures (Kelvin)      0.09413     0.07444     0.04163
 Rotational constants (GHZ):           1.96126     1.55110     0.86749
    1 imaginary frequencies ignored.
 Zero-point vibrational energy     259264.7 (Joules/Mol)
                                   61.96575 (Kcal/Mol)
 Warning -- explicit consideration of  10 degrees of freedom as
           vibrations may cause significant error
 Vibrational temperatures:     76.63   141.00   145.02   243.72   305.12
          (Kelvin)            350.89   385.77   635.80   692.56   805.57
                              924.34  1040.07  1121.17  1143.26  1190.63
                             1322.27  1402.18  1532.47  1557.50  1565.81
                             1674.50  1820.08  1910.76  1928.24  2007.00
                             2153.94  2226.14  2240.78  2385.12  2519.06
                             4570.39  4782.08  4811.03  5330.04  5423.82

 Zero-point correction=                           0.098749 (Hartree/Particle)
 Thermal correction to Energy=                    0.107408
 Thermal correction to Enthalpy=                  0.108353
 Thermal correction to Gibbs Free Energy=         0.064095
 Sum of electronic and zero-point Energies=           -506.974846
 Sum of electronic and thermal Energies=              -506.966187
 Sum of electronic and thermal Enthalpies=            -506.965242
 Sum of electronic and thermal Free Energies=         -507.009500

                     E (Thermal)             CV                S
                      KCal/Mol        Cal/Mol-Kelvin    Cal/Mol-Kelvin
 Total                   67.400             29.332             93.148
 Electronic               0.000              0.000              0.000
 Translational            0.889              2.981             40.524
 Rotational               0.889              2.981             29.189
 Vibrational             65.622             23.370             23.435
 Vibration     1          0.596              1.976              4.692
 Vibration     2          0.603              1.951              3.494
 Vibration     3          0.604              1.948              3.439
 Vibration     4          0.625              1.880              2.442
 Vibration     5          0.643              1.822              2.026
 Vibration     6          0.659              1.773              1.774
 Vibration     7          0.673              1.732              1.608
 Vibration     8          0.802              1.379              0.821
 Vibration     9          0.838              1.291              0.706
 Vibration    10          0.916              1.118              0.524

 Optimization completed.
    -- Stationary point found.
 Normal termination of Gaussian 16 at Sat Jul  8 23:50:21 2023.
