 Gaussian 16, Revision A.03,
 Gaussian 16:  ES64L-G16RevA.03 25-Dec-2016

 ----------------------------------------------------------------------
 # opt=(calcfc,ts,noeigentest) freq 6-31+g(d,p) integral=grid=ultrafine
  m062x scrf=(SMD,solvent=water)
 ----------------------------------------------------------------------

 ----
 test
 ----
 Symbolic Z-matrix:
 Charge = -1 Multiplicity = 2

 SCF Done:  E(UM062X) =  -430.699605918     A.U. after   19 cycles
 SCF Done:  E(UM062X) =  -430.718455721     A.U. after   17 cycles
 SCF Done:  E(UM062X) =  -430.733061560     A.U. after   16 cycles
 SCF Done:  E(UM062X) =  -430.739960384     A.U. after   16 cycles
 SCF Done:  E(UM062X) =  -430.740269655     A.U. after   16 cycles
 SCF Done:  E(UM062X) =  -430.740618957     A.U. after   15 cycles
 SCF Done:  E(UM062X) =  -430.740501914     A.U. after   14 cycles
 SCF Done:  E(UM062X) =  -430.740461020     A.U. after   15 cycles
 SCF Done:  E(UM062X) =  -430.740720777     A.U. after   15 cycles
 SCF Done:  E(UM062X) =  -430.740724156     A.U. after   13 cycles
 SCF Done:  E(UM062X) =  -430.740725885     A.U. after   11 cycles
 SCF Done:  E(UM062X) =  -430.740726071     A.U. after   11 cycles
 SCF Done:  E(UM062X) =  -430.740726108     A.U. after   11 cycles
 Optimization completed.
    -- Stationary point found.
 Normal termination of Gaussian 16 at Thu Jul  6 21:00:42 2023.

 ----------------------------------------------------------------------
 #N Geom=AllCheck Guess=TCheck SCRF=Check GenChk UM062X/6-31+G(d,p) Fre
 q
 ----------------------------------------------------------------------

 Structure from the checkpoint file:  "/scratch/gongke2021/TS/Gau-12694.chk"
 ----
 test
 ----
 Charge = -1 Multiplicity = 2

                         Standard orientation:
 ---------------------------------------------------------------------
 Center     Atomic      Atomic             Coordinates (Angstroms)
 Number     Number       Type             X           Y           Z
 ---------------------------------------------------------------------
      1          7           0       -0.638296   -1.033264    0.335245
      2          7           0        0.029698    0.211304    0.434008
      3          6           0       -0.885589    1.214590    0.083935
      4          6           0       -2.030337    0.539775   -0.256082
      5          7           0       -1.885840   -0.804921   -0.149983
      6          1           0       -0.634411    2.262203    0.113945
      7          1           0       -2.968952    0.966908   -0.581908
      8          1           0        0.483655   -1.570314   -0.117044
      9          6           0        1.354984    0.075188    0.001448
     10          8           0        2.127231    1.030474   -0.110404
     11          8           0        1.616073   -1.186467   -0.230307
 ---------------------------------------------------------------------

 SCF Done:  E(UM062X) =  -430.740726108     A.U. after    1 cycles

 The electronic state is 2-A.
 Alpha  occ. eigenvalues --  -19.65166 -19.62894 -14.82266 -14.79817 -14.77001
 Alpha  occ. eigenvalues --  -10.70168 -10.57096 -10.56640  -1.23151  -1.15663
 Alpha  occ. eigenvalues --   -1.11999  -0.99285  -0.88794  -0.76096  -0.68894
 Alpha  occ. eigenvalues --   -0.64167  -0.62788  -0.57313  -0.53962  -0.52217
 Alpha  occ. eigenvalues --   -0.50342  -0.48089  -0.46995  -0.39655  -0.38662
 Alpha  occ. eigenvalues --   -0.37007  -0.36525  -0.35096  -0.32519  -0.17487
 Alpha virt. eigenvalues --    0.02729   0.04217   0.05164   0.05465   0.06268
 Alpha virt. eigenvalues --    0.06580   0.07290   0.08225   0.09152   0.09430
 Alpha virt. eigenvalues --    0.12406   0.12770   0.14271   0.14722   0.16189

  Beta  occ. eigenvalues --  -19.65132 -19.62806 -14.82084 -14.79288 -14.76538
  Beta  occ. eigenvalues --  -10.70081 -10.56868 -10.56741  -1.22692  -1.14752
  Beta  occ. eigenvalues --   -1.11710  -0.98098  -0.87782  -0.74808  -0.68367
  Beta  occ. eigenvalues --   -0.63397  -0.62217  -0.55823  -0.53653  -0.51804
  Beta  occ. eigenvalues --   -0.49763  -0.46755  -0.45952  -0.38884  -0.37755
  Beta  occ. eigenvalues --   -0.36099  -0.34227  -0.33190  -0.29474
  Beta virt. eigenvalues --   -0.00816   0.02435   0.04177   0.04968   0.05130
  Beta virt. eigenvalues --    0.06560   0.07062   0.07568   0.08373   0.08645
  Beta virt. eigenvalues --    0.10215   0.12193   0.12780   0.13426   0.14815

 Mulliken charges and spin densities:
               1          2
     1  N   -0.333259   0.288159
     2  N   -0.221799   0.060349
     3  C   -0.217103   0.355452
     4  C   -0.157098  -0.162298
     5  N   -0.332587   0.343809
     6  H    0.226436  -0.014519
     7  H    0.203287   0.004501
     8  H    0.442684   0.018051
     9  C    0.767436   0.051817
    10  O   -0.711797   0.043048
    11  O   -0.666200   0.011631
 Sum of Mulliken charges =  -1.00000   1.00000

 Dipole moment (field-independent basis, Debye):
    X=             -3.8634    Y=              2.6784    Z=             -0.2005  Tot=              4.7053
 Quadrupole moment (field-independent basis, Debye-Ang):
   XX=            -70.4639   YY=            -54.3130   ZZ=            -50.6481
   XY=             -9.7679   XZ=              2.8978   YZ=              0.0663

  Exact polarizability: 132.297   6.486 111.327   2.851  -1.569  63.329
 Approx polarizability: 103.348   7.736  96.986   2.785  -0.636  57.021

 ******    1 imaginary frequencies (negative Signs) ******

                      1                      2                      3
                      A                      A                      A
 Frequencies --  -1412.7801               123.3251               162.1099
 Red. masses --      1.0819                 7.5059                 8.6060
 Frc consts  --      1.2723                 0.0673                 0.1333
 IR Inten    --   2723.3909                25.2162                17.6896

                      4                      5                      6
                      A                      A                      A
 Frequencies --    310.1961               495.9411               567.7689
 Red. masses --      6.2301                10.9954                 5.1353
 Frc consts  --      0.3532                 1.5934                 0.9753
 IR Inten    --      8.7958                 2.0807                43.0552

                      7                      8                      9
                      A                      A                      A
 Frequencies --    597.8078               631.9210               667.2300
 Red. masses --      1.8549                 2.7022                 7.5522
 Frc consts  --      0.3906                 0.6358                 1.9810
 IR Inten    --     26.0914                49.8949                27.0896

                     10                     11                     12
                      A                      A                      A
 Frequencies --    765.2373               789.0985               906.1596
 Red. masses --     11.5761                11.7453                 1.3153
 Frc consts  --      3.9940                 4.3090                 0.6363
 IR Inten    --     45.2967               129.3280                17.9047

                     13                     14                     15
                      A                      A                      A
 Frequencies --    924.9277               946.8638              1064.8052
 Red. masses --      4.6996                 5.7590                 1.8006
 Frc consts  --      2.3688                 3.0421                 1.2028
 IR Inten    --     13.9655                84.3608                67.8458

                     16                     17                     18
                      A                      A                      A
 Frequencies --   1105.2461              1159.4418              1189.2527
 Red. masses --      3.0523                 2.2779                 1.5011
 Frc consts  --      2.1968                 1.8042                 1.2509
 IR Inten    --    190.0706                70.0173               167.5097

                     19                     20                     21
                      A                      A                      A
 Frequencies --   1229.8905              1282.5673              1358.9342
 Red. masses --      4.5190                 6.0694                 3.4887
 Frc consts  --      4.0274                 5.8824                 3.7959
 IR Inten    --    385.3626               227.7577               747.5532

                     22                     23                     24
                      A                      A                      A
 Frequencies --   1408.5206              1498.2835              1675.2971
 Red. masses --      3.6337                 4.2370                 7.9702
 Frc consts  --      4.2475                 5.6040                13.1796
 IR Inten    --    615.6398                26.5887              1487.7383

                     25                     26                     27
                      A                      A                      A
 Frequencies --   2010.0233              3289.8463              3335.5529
 Red. masses --      1.0778                 1.0958                 1.1009
 Frc consts  --      2.5657                 6.9877                 7.2166
 IR Inten    --    122.4750                 4.0225                17.2364

 - Thermochemistry -
 -------------------
 Temperature   298.150 Kelvin.  Pressure   1.00000 Atm.
 Atom     1 has atomic number  7 and mass  14.00307

 Molecular mass:   113.02253 amu.
 Principal axes and moments of inertia in atomic units:
                           1         2         3
     Eigenvalues --   359.31303 953.415671264.19035
           X            0.99951  -0.03051   0.00635
           Y            0.03052   0.99953  -0.00183
           Z           -0.00629   0.00202   0.99998
 This molecule is an asymmetric top.
 Rotational symmetry number  1.
 Rotational temperatures (Kelvin)      0.24105     0.09085     0.06851
 Rotational constants (GHZ):           5.02275     1.89292     1.42759
    1 imaginary frequencies ignored.
 Zero-point vibrational energy     176426.7 (Joules/Mol)
                                   42.16700 (Kcal/Mol)
 Warning -- explicit consideration of   6 degrees of freedom as
           vibrations may cause significant error
 Vibrational temperatures:    177.44   233.24   446.30   713.55   816.89
          (Kelvin)            860.11   909.19   960.00  1101.01  1135.34
                             1303.76  1330.76  1362.33  1532.02  1590.20
                             1668.18  1711.07  1769.54  1845.33  1955.20
                             2026.55  2155.70  2410.38  2891.98  4733.35
                             4799.12

 Zero-point correction=                           0.067197 (Hartree/Particle)
 Thermal correction to Energy=                    0.073046
 Thermal correction to Enthalpy=                  0.073991
 Thermal correction to Gibbs Free Energy=         0.036211
 Sum of electronic and zero-point Energies=           -430.673529
 Sum of electronic and thermal Energies=              -430.667680
 Sum of electronic and thermal Enthalpies=            -430.666736
 Sum of electronic and thermal Free Energies=         -430.704515

                     E (Thermal)             CV                S
                      KCal/Mol        Cal/Mol-Kelvin    Cal/Mol-Kelvin
 Total                   45.837             21.192             79.513
 Electronic               0.000              0.000              1.377
 Translational            0.889              2.981             40.083
 Rotational               0.889              2.981             27.562
 Vibrational             44.060             15.230             10.490
 Vibration     1          0.610              1.930              3.048
 Vibration     2          0.622              1.889              2.525
 Vibration     3          0.699              1.654              1.361
 Vibration     4          0.852              1.259              0.668
 Vibration     5          0.924              1.101              0.509
 Vibration     6          0.956              1.036              0.453

 Optimization completed.
    -- Stationary point found.
 Normal termination of Gaussian 16 at Thu Jul  6 21:01:43 2023.
