 Gaussian 16, Revision A.03,
 Gaussian 16:  ES64L-G16RevA.03 25-Dec-2016

 ----------------------------------------------------------------------
 # opt=(calcfc,ts,noeigentest) freq 6-31+g(d,p) integral=grid=ultrafine
  m062x scrf=(SMD,solvent=water)
 ----------------------------------------------------------------------

 ----
 test
 ----
 Symbolic Z-matrix:
 Charge = -1 Multiplicity = 2

 SCF Done:  E(UM062X) =  -507.108320940     A.U. after   18 cycles
 SCF Done:  E(UM062X) =  -507.130712515     A.U. after   17 cycles
 SCF Done:  E(UM062X) =  -507.148802418     A.U. after   17 cycles
 SCF Done:  E(UM062X) =  -507.158663404     A.U. after   16 cycles
 SCF Done:  E(UM062X) =  -507.163438976     A.U. after   16 cycles
 SCF Done:  E(UM062X) =  -507.166966569     A.U. after   16 cycles
 SCF Done:  E(UM062X) =  -507.167714170     A.U. after   16 cycles
 SCF Done:  E(UM062X) =  -507.168595770     A.U. after   16 cycles
 SCF Done:  E(UM062X) =  -507.167558175     A.U. after   15 cycles
 SCF Done:  E(UM062X) =  -507.165747389     A.U. after   16 cycles
 SCF Done:  E(UM062X) =  -507.167401013     A.U. after   16 cycles
 SCF Done:  E(UM062X) =  -507.168121614     A.U. after   16 cycles
 SCF Done:  E(UM062X) =  -507.168601997     A.U. after   16 cycles
 SCF Done:  E(UM062X) =  -507.168731282     A.U. after   14 cycles
 SCF Done:  E(UM062X) =  -507.168742572     A.U. after   12 cycles
 SCF Done:  E(UM062X) =  -507.168744670     A.U. after   11 cycles
 SCF Done:  E(UM062X) =  -507.168730007     A.U. after   13 cycles
 SCF Done:  E(UM062X) =  -507.168745770     A.U. after   13 cycles
 SCF Done:  E(UM062X) =  -507.168745531     A.U. after   10 cycles
 Optimization completed.
    -- Stationary point found.
 Normal termination of Gaussian 16 at Tue Jul 11 12:49:55 2023.

 ----------------------------------------------------------------------
 #N Geom=AllCheck Guess=TCheck SCRF=Check GenChk UM062X/6-31+G(d,p) Fre
 q
 ----------------------------------------------------------------------

 Structure from the checkpoint file:  "/scratch/gongke2021/TS/Gau-32246.chk"
 ----
 test
 ----
 Charge = -1 Multiplicity = 2

                         Standard orientation:
 ---------------------------------------------------------------------
 Center     Atomic      Atomic             Coordinates (Angstroms)
 Number     Number       Type             X           Y           Z
 ---------------------------------------------------------------------
      1          7           0        0.533417   -0.928525   -0.352567
      2          7           0        0.258697    0.412704   -0.045845
      3          6           0        1.471881    1.052908    0.201391
      4          6           0        2.414632    0.059396    0.113294
      5          7           0        1.861331   -1.134974   -0.182989
      6          1           0        1.527919    2.103639    0.429688
      7          1           0        3.481478    0.152481    0.258841
      8          1           0       -0.381446   -1.713789   -0.003533
      9          6           0       -0.993657    0.971339   -0.058028
     10          8           0       -1.121667    2.201501    0.094153
     11          8           0       -2.017749    0.164901   -0.250641
     12          1           0       -1.580461   -2.333935    1.183775
     13          8           0       -1.500501   -2.145494    0.238841
     14          1           0       -1.859402   -0.921955    0.002281
 ---------------------------------------------------------------------

 SCF Done:  E(UM062X) =  -507.168745531     A.U. after    1 cycles

 The electronic state is 2-A.
 Alpha  occ. eigenvalues --  -19.64796 -19.62277 -19.61979 -14.84108 -14.80867
 Alpha  occ. eigenvalues --  -14.77484 -10.70088 -10.57242 -10.56858  -1.22276
 Alpha  occ. eigenvalues --   -1.16829  -1.12049  -1.08737  -1.00567  -0.89731
 Alpha  occ. eigenvalues --   -0.78120  -0.69255  -0.66642  -0.66259  -0.57767
 Alpha  occ. eigenvalues --   -0.56119  -0.54299  -0.53088  -0.50764  -0.49570
 Alpha  occ. eigenvalues --   -0.47539  -0.45342  -0.39651  -0.38950  -0.37895
 Alpha  occ. eigenvalues --   -0.36769  -0.36508  -0.34695  -0.33268  -0.16846
 Alpha virt. eigenvalues --    0.02742   0.04203   0.05199   0.05551   0.05993
 Alpha virt. eigenvalues --    0.06549   0.07488   0.08693   0.09859   0.10540
 Alpha virt. eigenvalues --    0.11599   0.12836   0.13775   0.14647   0.16345

  Beta  occ. eigenvalues --  -19.64741 -19.62257 -19.61820 -14.83985 -14.80358
  Beta  occ. eigenvalues --  -14.77063 -10.70018 -10.57038 -10.56945  -1.21736
  Beta  occ. eigenvalues --   -1.15921  -1.11752  -1.08573  -0.99481  -0.88746
  Beta  occ. eigenvalues --   -0.76919  -0.68798  -0.66395  -0.65506  -0.56700
  Beta  occ. eigenvalues --   -0.55066  -0.53771  -0.52847  -0.50002  -0.48626
  Beta  occ. eigenvalues --   -0.46717  -0.45016  -0.39203  -0.37821  -0.36685
  Beta  occ. eigenvalues --   -0.35980  -0.34122  -0.33725  -0.30143
  Beta virt. eigenvalues --   -0.00962   0.02410   0.04087   0.04964   0.05148
  Beta virt. eigenvalues --    0.06318   0.07208   0.07500   0.08570   0.09799
  Beta virt. eigenvalues --    0.11152   0.11349   0.12856   0.13610   0.14459

 Mulliken charges and spin densities:
               1          2
     1  N   -0.297232   0.280765
     2  N   -0.214942   0.012102
     3  C   -0.159879   0.332761
     4  C   -0.206436  -0.155460
     5  N   -0.367043   0.325568
     6  H    0.233446  -0.013825
     7  H    0.208140   0.004432
     8  H    0.496232   0.002021
     9  C    0.801703   0.104199
    10  O   -0.710706   0.075702
    11  O   -0.719918   0.020872
    12  H    0.447756  -0.000808
    13  O   -1.046633   0.011614
    14  H    0.535511   0.000057
 Sum of Mulliken charges =  -1.00000   1.00000

 Dipole moment (field-independent basis, Debye):
    X=              4.2281    Y=             -0.8394    Z=              3.2475  Tot=              5.3970
 Quadrupole moment (field-independent basis, Debye-Ang):
   XX=            -68.9972   YY=            -76.8422   ZZ=            -54.6361
   XY=             12.2777   XZ=             -1.7030   YZ=             -5.4581

  Exact polarizability: 148.331 -14.392 141.338   2.277   7.113  71.460
 Approx polarizability: 111.195  -8.799 114.382   1.805   6.164  63.026

 ******    1 imaginary frequencies (negative Signs) ******

                      1                      2                      3
                      A                      A                      A
 Frequencies --  -1215.4562                79.3315               134.9977
 Red. masses --      1.0692                 6.0554                 6.5410
 Frc consts  --      0.9306                 0.0225                 0.0702
 IR Inten    --   2294.4742                12.8582                 3.7873

                      4                      5                      6
                      A                      A                      A
 Frequencies --    142.4315               240.4712               382.5692
 Red. masses --      7.3823                 7.6606                 5.9703
 Frc consts  --      0.0882                 0.2610                 0.5148
 IR Inten    --     14.4655               101.9315               513.9010

                      7                      8                      9
                      A                      A                      A
 Frequencies --    409.7510               482.3132               513.6387
 Red. masses --      8.2055                 6.6025                 1.8193
 Frc consts  --      0.8117                 0.9049                 0.2828
 IR Inten    --     13.0192               312.9509               912.6556

                     10                     11                     12
                      A                      A                      A
 Frequencies --    537.0952               568.9435               578.4878
 Red. masses --      2.3797                 2.3666                 1.6281
 Frc consts  --      0.4045                 0.4514                 0.3210
 IR Inten    --    136.4963               282.2896               103.1835

                     13                     14                     15
                      A                      A                      A
 Frequencies --    612.3816               624.6072               710.1215
 Red. masses --      1.7946                 1.9572                11.6493
 Frc consts  --      0.3965                 0.4499                 3.4611
 IR Inten    --     32.1084               118.1861                54.9614

                     16                     17                     18
                      A                      A                      A
 Frequencies --    758.2171               906.8917               929.6425
 Red. masses --      4.3652                 1.2873                 4.9222
 Frc consts  --      1.4786                 0.6238                 2.5063
 IR Inten    --   1146.2248                17.5589                31.8955

                     19                     20                     21
                      A                      A                      A
 Frequencies --    961.8354              1074.2745              1111.1611
 Red. masses --      4.3088                 1.5431                 2.6690
 Frc consts  --      2.3486                 1.0493                 1.9416
 IR Inten    --    269.3946                24.8654               507.4964

                     22                     23                     24
                      A                      A                      A
 Frequencies --   1172.6124              1214.0644              1249.8810
 Red. masses --      4.1574                 2.0050                 3.5850
 Frc consts  --      3.3680                 1.7412                 3.2997
 IR Inten    --   1238.6560              4384.4883               331.1164

                     25                     26                     27
                      A                      A                      A
 Frequencies --   1291.0330              1329.5101              1389.2738
 Red. masses --      2.6995                 1.2016                 2.3911
 Frc consts  --      2.6510                 1.2514                 2.7191
 IR Inten    --    282.9798               540.8014                80.8057

                     28                     29                     30
                      A                      A                      A
 Frequencies --   1417.2443              1471.6016              1500.6119
 Red. masses --      1.2634                 2.9498                 1.6679
 Frc consts  --      1.4952                 3.7637                 2.2129
 IR Inten    --    234.7035               512.6794               523.4247

                     31                     32                     33
                      A                      A                      A
 Frequencies --   1541.2140              1639.2975              1789.0219
 Red. masses --      3.2144                 6.5455                 1.0626
 Frc consts  --      4.4985                10.3635                 2.0037
 IR Inten    --    840.7430               584.4513               267.8325

                     34                     35                     36
                      A                      A                      A
 Frequencies --   3297.7119              3346.8662              3875.1708
 Red. masses --      1.0969                 1.1010                 1.0660
 Frc consts  --      7.0283                 7.2661                 9.4318
 IR Inten    --      2.6624                24.4426               113.4584

 - Thermochemistry -
 -------------------
 Temperature   298.150 Kelvin.  Pressure   1.00000 Atm.
 Atom     1 has atomic number  7 and mass  14.00307

 Molecular mass:   131.03309 amu.
 Principal axes and moments of inertia in atomic units:
                           1         2         3
     Eigenvalues --   814.019001110.473981877.33740
           X            0.99304   0.11777  -0.00128
           Y           -0.11777   0.99300  -0.00859
           Z            0.00026   0.00868   0.99996
 This molecule is an asymmetric top.
 Rotational symmetry number  1.
 Warning -- assumption of classical behavior for rotation
           may cause significant error
 Rotational temperatures (Kelvin)      0.10640     0.07800     0.04614
 Rotational constants (GHZ):           2.21708     1.62520     0.96133
    1 imaginary frequencies ignored.
 Zero-point vibrational energy     234972.2 (Joules/Mol)
                                   56.15969 (Kcal/Mol)
 Warning -- explicit consideration of  12 degrees of freedom as
           vibrations may cause significant error
 Vibrational temperatures:    114.14   194.23   204.93   345.98   550.43
          (Kelvin)            589.54   693.94   739.01   772.76   818.58
                              832.31   881.08   898.67  1021.71  1090.91
                             1304.81  1337.55  1383.87  1545.64  1598.71
                             1687.13  1746.77  1798.30  1857.51  1912.87
                             1998.86  2039.10  2117.31  2159.05  2217.46
                             2358.58  2574.00  4744.67  4815.39  5575.51

 Zero-point correction=                           0.089496 (Hartree/Particle)
 Thermal correction to Energy=                    0.097355
 Thermal correction to Enthalpy=                  0.098299
 Thermal correction to Gibbs Free Energy=         0.055942
 Sum of electronic and zero-point Energies=           -507.079249
 Sum of electronic and thermal Energies=              -507.071390
 Sum of electronic and thermal Enthalpies=            -507.070446
 Sum of electronic and thermal Free Energies=         -507.112804

                     E (Thermal)             CV                S
                      KCal/Mol        Cal/Mol-Kelvin    Cal/Mol-Kelvin
 Total                   61.091             29.190             89.149
 Electronic               0.000              0.000              1.377
 Translational            0.889              2.981             40.524
 Rotational               0.889              2.981             28.919
 Vibrational             59.314             23.228             18.329
 Vibration     1          0.600              1.963              3.907
 Vibration     2          0.613              1.918              2.874
 Vibration     3          0.616              1.911              2.771
 Vibration     4          0.658              1.778              1.799
 Vibration     5          0.752              1.507              1.029
 Vibration     6          0.774              1.449              0.927
 Vibration     7          0.839              1.289              0.704
 Vibration     8          0.869              1.220              0.625
 Vibration     9          0.892              1.168              0.572
 Vibration    10          0.925              1.098              0.506
 Vibration    11          0.935              1.078              0.488
 Vibration    12          0.972              1.006              0.429

 Optimization completed.
    -- Stationary point found.
 Normal termination of Gaussian 16 at Tue Jul 11 12:51:31 2023.
