 Gaussian 16, Revision A.03,
 Gaussian 16:  ES64L-G16RevA.03 25-Dec-2016

 -----------------------------------------------------
 # opt freq 6-31+g(d,p) m062x scrf=(SMD,solvent=water)
 -----------------------------------------------------

 ----
 test
 ----
 Symbolic Z-matrix:
 Charge = -1 Multiplicity = 2

 SCF Done:  E(UM062X) =  -583.526949990     A.U. after   18 cycles
 SCF Done:  E(UM062X) =  -583.568569919     A.U. after   16 cycles
 SCF Done:  E(UM062X) =  -583.564330459     A.U. after   18 cycles
 SCF Done:  E(UM062X) =  -583.593169710     A.U. after   16 cycles
 SCF Done:  E(UM062X) =  -583.597771058     A.U. after   14 cycles
 SCF Done:  E(UM062X) =  -583.599771386     A.U. after   14 cycles
 SCF Done:  E(UM062X) =  -583.600872450     A.U. after   15 cycles
 SCF Done:  E(UM062X) =  -583.602668240     A.U. after   14 cycles
 SCF Done:  E(UM062X) =  -583.605287628     A.U. after   16 cycles
 SCF Done:  E(UM062X) =  -583.606086993     A.U. after   15 cycles
 SCF Done:  E(UM062X) =  -583.608951280     A.U. after    9 cycles
 SCF Done:  E(UM062X) =  -583.608951906     A.U. after   10 cycles
 SCF Done:  E(UM062X) =  -583.608952902     A.U. after   10 cycles
 SCF Done:  E(UM062X) =  -583.608953309     A.U. after   10 cycles
 SCF Done:  E(UM062X) =  -583.608953514     A.U. after    9 cycles
 SCF Done:  E(UM062X) =  -583.608953647     A.U. after    8 cycles
 SCF Done:  E(UM062X) =  -583.608953755     A.U. after    8 cycles
 SCF Done:  E(UM062X) =  -583.608953880     A.U. after    8 cycles
 SCF Done:  E(UM062X) =  -583.608953957     A.U. after    8 cycles
 Optimization completed.
    -- Stationary point found.
 Normal termination of Gaussian 16 at Tue Jul 11 22:47:05 2023.

 ----------------------------------------------------------------------
 #N Geom=AllCheck Guess=TCheck SCRF=Check GenChk UM062X/6-31+G(d,p) Fre
 q
 ----------------------------------------------------------------------

 Structure from the checkpoint file:  "/scratch/gongke2021/RC/Gau-24078.chk"
 ----
 test
 ----
 Charge = -1 Multiplicity = 2

                         Standard orientation:
 ---------------------------------------------------------------------
 Center     Atomic      Atomic             Coordinates (Angstroms)
 Number     Number       Type             X           Y           Z
 ---------------------------------------------------------------------
      1          7           0        0.096851   -0.865477    0.254977
      2          7           0        0.956157    0.179197   -0.122076
      3          6           0        2.246774   -0.308883   -0.024952
      4          6           0        2.121182   -1.649323    0.246319
      5          7           0        0.831802   -2.028989    0.346722
      6          1           0        3.105323    0.325404   -0.170108
      7          1           0        2.916391   -2.371636    0.363084
      8          1           0       -0.735497   -0.946143   -0.342450
      9          6           0        0.520336    1.522584   -0.151296
     10          8           0        1.412241    2.384000   -0.334877
     11          8           0       -0.722046    1.703035   -0.021980
     12          1           0       -2.825400   -0.719260   -0.428774
     13          8           0       -2.507836   -1.320918   -1.132841
     14          1           0       -2.594143   -0.825032   -1.957101
     15          1           0       -2.045425    0.840166    0.751469
     16          8           0       -2.890338    0.412806    1.015723
     17          1           0       -2.680848   -0.114253    1.797889
 ---------------------------------------------------------------------

 SCF Done:  E(UM062X) =  -583.608953957     A.U. after    1 cycles

 The electronic state is 2-A.
 Alpha  occ. eigenvalues --  -19.64120 -19.64109 -19.61523 -19.61029 -14.83677
 Alpha  occ. eigenvalues --  -14.83578 -14.78345 -10.69114 -10.58150 -10.57516
 Alpha  occ. eigenvalues --   -1.21350  -1.16668  -1.13006  -1.11644  -1.08718
 Alpha  occ. eigenvalues --   -1.00391  -0.91980  -0.77448  -0.69686  -0.67969
 Alpha  occ. eigenvalues --   -0.61623  -0.59949  -0.58742  -0.56554  -0.53706
 Alpha  occ. eigenvalues --   -0.52417  -0.50960  -0.49555  -0.48319  -0.47885
 Alpha  occ. eigenvalues --   -0.46300  -0.40046  -0.39305  -0.39148  -0.38135
 Alpha  occ. eigenvalues --   -0.36846  -0.35944  -0.34842  -0.33950  -0.18793
 Alpha virt. eigenvalues --    0.02599   0.04133   0.05116   0.05453   0.05631
 Alpha virt. eigenvalues --    0.06453   0.07276   0.08438   0.09819   0.10704
 Alpha virt. eigenvalues --    0.11609   0.11988   0.12653   0.13868   0.14999

  Beta  occ. eigenvalues --  -19.64116 -19.64104 -19.61475 -19.60962 -14.83306
  Beta  occ. eigenvalues --  -14.83267 -14.77778 -10.69100 -10.57925 -10.57624
  Beta  occ. eigenvalues --   -1.20617  -1.16000  -1.12992  -1.11629  -1.08532
  Beta  occ. eigenvalues --   -0.98980  -0.91027  -0.76123  -0.69182  -0.67190
  Beta  occ. eigenvalues --   -0.61518  -0.59934  -0.57365  -0.55814  -0.53028
  Beta  occ. eigenvalues --   -0.51940  -0.50453  -0.49209  -0.47856  -0.46734
  Beta  occ. eigenvalues --   -0.46251  -0.39919  -0.39219  -0.38211  -0.36115
  Beta  occ. eigenvalues --   -0.34798  -0.34051  -0.33460  -0.32324
  Beta virt. eigenvalues --   -0.01990   0.02344   0.04099   0.04859   0.05157
  Beta virt. eigenvalues --    0.06322   0.07089   0.07164   0.08256   0.09272
  Beta virt. eigenvalues --    0.10908   0.11563   0.12270   0.12572   0.13736

 Mulliken charges and spin densities:
               1          2
     1  N   -0.149344   0.188102
     2  N   -0.220655   0.096545
     3  C   -0.124440   0.350232
     4  C   -0.191996  -0.145099
     5  N   -0.487355   0.419599
     6  H    0.239291  -0.014014
     7  H    0.216249   0.003743
     8  H    0.401924   0.015054
     9  C    0.844557   0.024580
    10  O   -0.747150   0.034198
    11  O   -0.796603   0.024538
    12  H    0.479240   0.000120
    13  O   -0.918058   0.001244
    14  H    0.441742  -0.000073
    15  H    0.488946   0.000541
    16  O   -0.919012   0.000948
    17  H    0.442664  -0.000257
 Sum of Mulliken charges =  -1.00000   1.00000

 Dipole moment (field-independent basis, Debye):
    X=              1.2940    Y=             -5.6570    Z=              0.0745  Tot=              5.8036
 Quadrupole moment (field-independent basis, Debye-Ang):
   XX=            -70.3579   YY=            -98.5289   ZZ=            -57.2769
   XY=             -8.3199   XZ=              2.4062   YZ=              0.3835

  Exact polarizability: 134.631  -0.886 146.953  -4.056  -9.903  81.695
 Approx polarizability: 110.011   3.045 114.439  -3.807  -7.866  71.006

                      1                      2                      3
                      A                      A                      A
 Frequencies --     27.7325                36.3161                62.7318
 Red. masses --      6.7841                 6.2056                 6.6612
 Frc consts  --      0.0031                 0.0048                 0.0154
 IR Inten    --      6.9240                 1.4440                 2.7133

                      4                      5                      6
                      A                      A                      A
 Frequencies --     93.8058               114.8459               131.5204
 Red. masses --      6.7820                 7.3927                 6.5555
 Frc consts  --      0.0352                 0.0574                 0.0668
 IR Inten    --      2.7720                22.3658                28.0120

                      7                      8                      9
                      A                      A                      A
 Frequencies --    162.0044               205.4255               235.5566
 Red. masses --      5.8771                 6.3897                 2.2888
 Frc consts  --      0.0909                 0.1589                 0.0748
 IR Inten    --     39.6974                60.5052                82.1829

                     10                     11                     12
                      A                      A                      A
 Frequencies --    238.7397               255.3272               343.0049
 Red. masses --      1.5838                 1.1063                 1.0684
 Frc consts  --      0.0532                 0.0425                 0.0741
 IR Inten    --    222.3294               245.8589                60.1125

                     13                     14                     15
                      A                      A                      A
 Frequencies --    398.2865               421.7861               446.8767
 Red. masses --      3.0960                 1.2709                 7.6600
 Frc consts  --      0.2894                 0.1332                 0.9013
 IR Inten    --     29.5455               113.8597                19.6047

                     16                     17                     18
                      A                      A                      A
 Frequencies --    557.9978               570.0877               588.3645
 Red. masses --      1.8698                 1.8114                 3.2650
 Frc consts  --      0.3430                 0.3469                 0.6659
 IR Inten    --    156.5398               196.2124                19.3304

                     19                     20                     21
                      A                      A                      A
 Frequencies --    671.2188               741.9740               765.8123
 Red. masses --      1.2996                 1.2518                 7.3679
 Frc consts  --      0.3450                 0.4060                 2.5459
 IR Inten    --    122.6863               505.8168                56.6396

                     22                     23                     24
                      A                      A                      A
 Frequencies --    781.2591               835.9156               914.4778
 Red. masses --      7.1279                 1.6804                 1.7249
 Frc consts  --      2.5633                 0.6918                 0.8499
 IR Inten    --    116.5437                69.5376                30.8932

                     25                     26                     27
                      A                      A                      A
 Frequencies --    926.9531               972.0967              1081.8898
 Red. masses --      2.4178                 3.7283                 1.3630
 Frc consts  --      1.2240                 2.0758                 0.9400
 IR Inten    --     28.9849                75.7481                83.0060

                     28                     29                     30
                      A                      A                      A
 Frequencies --   1086.4650              1215.5249              1254.9001
 Red. masses --      2.6858                 2.9001                 5.2351
 Frc consts  --      1.8679                 2.5246                 4.8573
 IR Inten    --    201.6552                23.5848                 4.7234

                     31                     32                     33
                      A                      A                      A
 Frequencies --   1320.0328              1368.2334              1372.9729
 Red. masses --      6.6278                 5.7164                 1.7976
 Frc consts  --      6.8044                 6.3052                 1.9965
 IR Inten    --    632.9876              1092.5167               312.8281

                     34                     35                     36
                      A                      A                      A
 Frequencies --   1480.4764              1536.1903              1582.3778
 Red. masses --      1.7386                 4.3719                 1.0805
 Frc consts  --      2.2452                 6.0787                 1.5940
 IR Inten    --     19.9540                38.8613                96.1983

                     37                     38                     39
                      A                      A                      A
 Frequencies --   1596.4035              1629.6259              3301.5688
 Red. masses --      1.0747                11.9171                 1.0966
 Frc consts  --      1.6137                18.6465                 7.0426
 IR Inten    --    175.8842              1624.6984                 3.1171

                     40                     41                     42
                      A                      A                      A
 Frequencies --   3342.8697              3374.6804              3476.2488
 Red. masses --      1.1011                 1.0839                 1.0654
 Frc consts  --      7.2497                 7.2728                 7.5854
 IR Inten    --     35.3685               624.7054              1207.5198

                     43                     44                     45
                      A                      A                      A
 Frequencies --   3581.2349              3889.1244              3894.5116
 Red. masses --      1.0616                 1.0677                 1.0694
 Frc consts  --      8.0217                 9.5151                 9.5565
 IR Inten    --    886.3426               232.8135               115.4541

 - Thermochemistry -
 -------------------
 Temperature   298.150 Kelvin.  Pressure   1.00000 Atm.
 Atom     1 has atomic number  7 and mass  14.00307

 Molecular mass:   149.04366 amu.
 Principal axes and moments of inertia in atomic units:
                           1         2         3
     Eigenvalues --  1276.296441823.671952737.27594
           X            0.99989  -0.01492   0.00168
           Y            0.01491   0.99987   0.00683
           Z           -0.00179  -0.00680   0.99998
 This molecule is an asymmetric top.
 Rotational symmetry number  1.
 Warning -- assumption of classical behavior for rotation
           may cause significant error
 Rotational temperatures (Kelvin)      0.06786     0.04749     0.03164
 Rotational constants (GHZ):           1.41405     0.98962     0.65932
 Zero-point vibrational energy     316325.2 (Joules/Mol)
                                   75.60354 (Kcal/Mol)
 Warning -- explicit consideration of  18 degrees of freedom as
           vibrations may cause significant error
 Vibrational temperatures:     39.90    52.25    90.26   134.97   165.24
          (Kelvin)            189.23   233.09   295.56   338.91   343.49
                              367.36   493.51   573.05   606.86   642.96
                              802.83   820.23   846.53   965.73  1067.54
                             1101.83  1124.06  1202.70  1315.73  1333.68
                             1398.63  1556.60  1563.18  1748.87  1805.52
                             1899.23  1968.58  1975.40  2130.08  2210.24
                             2276.69  2296.87  2344.67  4750.22  4809.64
                             4855.41  5001.55  5152.60  5595.58  5603.33

 Zero-point correction=                           0.120482 (Hartree/Particle)
 Thermal correction to Energy=                    0.133158
 Thermal correction to Enthalpy=                  0.134102
 Thermal correction to Gibbs Free Energy=         0.079346
 Sum of electronic and zero-point Energies=           -583.488472
 Sum of electronic and thermal Energies=              -583.475796
 Sum of electronic and thermal Enthalpies=            -583.474852
 Sum of electronic and thermal Free Energies=         -583.529608

                     E (Thermal)             CV                S
                      KCal/Mol        Cal/Mol-Kelvin    Cal/Mol-Kelvin
 Total                   83.558             42.488            115.245
 Electronic               0.000              0.000              1.377
 Translational            0.889              2.981             40.908
 Rotational               0.889              2.981             30.234
 Vibrational             81.781             36.526             42.726
 Vibration     1          0.593              1.984              5.985
 Vibration     2          0.594              1.982              5.451
 Vibration     3          0.597              1.972              4.369
 Vibration     4          0.603              1.954              3.579
 Vibration     5          0.608              1.937              3.185
 Vibration     6          0.612              1.922              2.924
 Vibration     7          0.622              1.889              2.526
 Vibration     8          0.640              1.832              2.084
 Vibration     9          0.655              1.786              1.836
 Vibration    10          0.657              1.781              1.812
 Vibration    11          0.666              1.754              1.694
 Vibration    12          0.722              1.589              1.198
 Vibration    13          0.765              1.474              0.969
 Vibration    14          0.784              1.423              0.886
 Vibration    15          0.806              1.368              0.805
 Vibration    16          0.914              1.122              0.528
 Vibration    17          0.926              1.096              0.504
 Vibration    18          0.946              1.057              0.470

                           ! Non-Optimized Parameters !
 Normal termination of Gaussian 16 at Tue Jul 11 22:49:20 2023.
