 Gaussian 16, Revision A.03,
 Gaussian 16:  ES64L-G16RevA.03 25-Dec-2016

 -----------------------------------------------------
 # opt freq 6-31+g(d,p) m062x scrf=(SMD,solvent=water)
 -----------------------------------------------------

 ----
 test
 ----
 Symbolic Z-matrix:
 Charge = -1 Multiplicity = 2

 SCF Done:  E(UM062X) =  -430.674168055     A.U. after   18 cycles
 SCF Done:  E(UM062X) =  -430.748480027     A.U. after   18 cycles
 SCF Done:  E(UM062X) =  -430.743122407     A.U. after   18 cycles
 SCF Done:  E(UM062X) =  -430.766817348     A.U. after   16 cycles
 SCF Done:  E(UM062X) =  -430.767426875     A.U. after   15 cycles
 SCF Done:  E(UM062X) =  -430.766974209     A.U. after   15 cycles
 SCF Done:  E(UM062X) =  -430.767677334     A.U. after   12 cycles
 SCF Done:  E(UM062X) =  -430.767687325     A.U. after   12 cycles
 SCF Done:  E(UM062X) =  -430.767689051     A.U. after   11 cycles
 Optimization completed.
    -- Stationary point found.
 Normal termination of Gaussian 16 at Thu Jul  6 20:55:12 2023.

 ----------------------------------------------------------------------
 #N Geom=AllCheck Guess=TCheck SCRF=Check GenChk UM062X/6-31+G(d,p) Fre
 q
 ----------------------------------------------------------------------

 Structure from the checkpoint file:  "/scratch/gongke2021/RC/Gau-9617.chk"
 ----
 test
 ----
 Charge = -1 Multiplicity = 2

                         Standard orientation:
 ---------------------------------------------------------------------
 Center     Atomic      Atomic             Coordinates (Angstroms)
 Number     Number       Type             X           Y           Z
 ---------------------------------------------------------------------
      1          7           0       -0.739239   -1.044922    0.013128
      2          7           0        0.049044    0.083530    0.032335
      3          6           0       -0.833664    1.157766    0.009819
      4          6           0       -2.089215    0.607132   -0.014758
      5          7           0       -2.061622   -0.748115   -0.014140
      6          1           0       -0.481270    2.175224    0.017729
      7          1           0       -3.034199    1.129712   -0.033765
      8          1           0       -0.332576   -1.969360    0.015433
      9          6           0        1.454117    0.021358   -0.001356
     10          8           0        2.048877    1.130740   -0.010326
     11          8           0        1.941540   -1.141560   -0.012284
 ---------------------------------------------------------------------

 SCF Done:  E(UM062X) =  -430.767689051     A.U. after    1 cycles

 The electronic state is 2-A.
 Alpha  occ. eigenvalues --  -19.60772 -19.60641 -14.84510 -14.84046 -14.78544
 Alpha  occ. eigenvalues --  -10.68600 -10.57720 -10.57372  -1.21974  -1.16631
 Alpha  occ. eigenvalues --   -1.08187  -1.00906  -0.92217  -0.77641  -0.70647
 Alpha  occ. eigenvalues --   -0.69252  -0.58210  -0.57340  -0.54414  -0.52383
 Alpha  occ. eigenvalues --   -0.50695  -0.49404  -0.49198  -0.39275  -0.37827
 Alpha  occ. eigenvalues --   -0.36264  -0.35621  -0.34249  -0.33681  -0.17170
 Alpha virt. eigenvalues --    0.02671   0.04216   0.05350   0.05499   0.05974
 Alpha virt. eigenvalues --    0.06354   0.07109   0.08332   0.10409   0.11220
 Alpha virt. eigenvalues --    0.11525   0.12410   0.14516   0.14593   0.17068

  Beta  occ. eigenvalues --  -19.60704 -19.60551 -14.83945 -14.83748 -14.78036
  Beta  occ. eigenvalues --  -10.68583 -10.57550 -10.57457  -1.20910  -1.15984
  Beta  occ. eigenvalues --   -1.07929  -0.99523  -0.91100  -0.76300  -0.70206
  Beta  occ. eigenvalues --   -0.68467  -0.57709  -0.54911  -0.53933  -0.51886
  Beta  occ. eigenvalues --   -0.50510  -0.48891  -0.47599  -0.38252  -0.35792
  Beta  occ. eigenvalues --   -0.34117  -0.33750  -0.33491  -0.31438
  Beta virt. eigenvalues --   -0.00378   0.02392   0.04124   0.04942   0.05311
  Beta virt. eigenvalues --    0.06283   0.06967   0.07388   0.08229   0.09847
  Beta virt. eigenvalues --    0.10985   0.12201   0.12267   0.14428   0.14707

 Mulliken charges and spin densities:
               1          2
     1  N   -0.303302   0.278440
     2  N   -0.106809   0.106495
     3  C   -0.165048   0.297633
     4  C   -0.196541  -0.147570
     5  N   -0.350066   0.369586
     6  H    0.236485  -0.012153
     7  H    0.214444   0.004051
     8  H    0.409617  -0.014503
     9  C    0.813154   0.039940
    10  O   -0.762276   0.042883
    11  O   -0.789657   0.035197
 Sum of Mulliken charges =  -1.00000   1.00000

 Dipole moment (field-independent basis, Debye):
    X=             -7.9938    Y=              0.9121    Z=              0.0980  Tot=              8.0463
 Quadrupole moment (field-independent basis, Debye-Ang):
   XX=            -77.4948   YY=            -51.3033   ZZ=            -49.7568
   XY=             -6.5903   XZ=              0.1992   YZ=             -0.0924

  Exact polarizability: 134.151   5.199 109.203   0.241   0.019  57.739
 Approx polarizability: 100.075   5.402  93.148   0.235   0.024  51.205

 ******    1 imaginary frequencies (negative Signs) ******

                      1                      2                      3
                      A                      A                      A
 Frequencies --   -623.9608                48.0768               135.8075
 Red. masses --      1.4628                 7.5786                 6.9438
 Frc consts  --      0.3355                 0.0103                 0.0755
 IR Inten    --    182.9474                14.1680                 1.5562

                      4                      5                      6
                      A                      A                      A
 Frequencies --    214.7153               401.1716               438.6729
 Red. masses --      7.0910                 3.3933                 9.8710
 Frc consts  --      0.1926                 0.3218                 1.1192
 IR Inten    --     10.8336                24.2994                 5.2503

                      7                      8                      9
                      A                      A                      A
 Frequencies --    571.0887               601.7119               643.7566
 Red. masses --      8.2107                 3.9201                 1.2275
 Frc consts  --      1.5778                 0.8362                 0.2997
 IR Inten    --      5.2725                 7.9304               128.3482

                     10                     11                     12
                      A                      A                      A
 Frequencies --    747.5440               778.0914               905.1965
 Red. masses --     12.1093                11.7290                 1.2684
 Frc consts  --      3.9870                 4.1838                 0.6124
 IR Inten    --     76.8884               137.7825                19.4907

                     13                     14                     15
                      A                      A                      A
 Frequencies --    917.7835               986.9849              1069.1177
 Red. masses --      4.9355                 4.4545                 2.9339
 Frc consts  --      2.4494                 2.5566                 1.9758
 IR Inten    --     97.8942                14.8741               386.3226

                     16                     17                     18
                      A                      A                      A
 Frequencies --   1087.0854              1226.5596              1246.5260
 Red. masses --      1.2800                 3.4501                 2.2540
 Frc consts  --      0.8913                 3.0582                 2.0635
 IR Inten    --     42.1259               144.7978                77.9850

                     19                     20                     21
                      A                      A                      A
 Frequencies --   1328.2737              1364.5985              1368.6674
 Red. masses --      5.4950                 7.0840                 3.6178
 Frc consts  --      5.7120                 7.7721                 3.9929
 IR Inten    --    139.5348              1518.4738               178.2902

                     22                     23                     24
                      A                      A                      A
 Frequencies --   1473.2387              1540.1115              1620.4057
 Red. masses --      2.2090                 4.6091                12.6912
 Frc consts  --      2.8248                 6.4412                19.6337
 IR Inten    --     92.1858                53.0613              1409.4532

                     25                     26                     27
                      A                      A                      A
 Frequencies --   3308.0909              3350.1455              3690.5536
 Red. masses --      1.0969                 1.1013                 1.0848
 Frc consts  --      7.0722                 7.2827                 8.7049
 IR Inten    --      2.2194                29.8377               339.7593

 - Thermochemistry -
 -------------------
 Temperature   298.150 Kelvin.  Pressure   1.00000 Atm.
 Atom     1 has atomic number  7 and mass  14.00307

 Molecular mass:   113.02253 amu.
 Principal axes and moments of inertia in atomic units:
                           1         2         3
     Eigenvalues --   339.017531036.803841375.61114
           X            0.99981  -0.01966   0.00031
           Y            0.01966   0.99981  -0.00033
           Z           -0.00030   0.00033   1.00000
 This molecule is an asymmetric top.
 Rotational symmetry number  1.
 Rotational temperatures (Kelvin)      0.25549     0.08354     0.06296
 Rotational constants (GHZ):           5.32345     1.74068     1.31196
    1 imaginary frequencies ignored.
 Zero-point vibrational energy     185803.8 (Joules/Mol)
                                   44.40818 (Kcal/Mol)
 Warning -- explicit consideration of   7 degrees of freedom as
           vibrations may cause significant error
 Vibrational temperatures:     69.17   195.40   308.93   577.20   631.15
          (Kelvin)            821.67   865.73   926.22  1075.55  1119.50
                             1302.38  1320.49  1420.05  1538.22  1564.07
                             1764.75  1793.47  1911.09  1963.35  1969.21
                             2119.66  2215.88  2331.40  4759.60  4820.11
                             5309.88

 Zero-point correction=                           0.070769 (Hartree/Particle)
 Thermal correction to Energy=                    0.077147
 Thermal correction to Enthalpy=                  0.078091
 Thermal correction to Gibbs Free Energy=         0.038579
 Sum of electronic and zero-point Energies=           -430.696920
 Sum of electronic and thermal Energies=              -430.690542
 Sum of electronic and thermal Enthalpies=            -430.689598
 Sum of electronic and thermal Free Energies=         -430.729110

                     E (Thermal)             CV                S
                      KCal/Mol        Cal/Mol-Kelvin    Cal/Mol-Kelvin
 Total                   48.410             21.913             83.160
 Electronic               0.000              0.000              1.377
 Translational            0.889              2.981             40.083
 Rotational               0.889              2.981             27.672
 Vibrational             46.633             15.951             14.028
 Vibration     1          0.595              1.978              4.895
 Vibration     2          0.614              1.918              2.862
 Vibration     3          0.645              1.819              2.003
 Vibration     4          0.767              1.468              0.958
 Vibration     5          0.799              1.386              0.831
 Vibration     6          0.927              1.094              0.502
 Vibration     7          0.960              1.028              0.447

                           ! Non-Optimized Parameters !
 Normal termination of Gaussian 16 at Thu Jul  6 20:56:12 2023.
