 Gaussian 16, Revision A.03,
 Gaussian 16:  ES64L-G16RevA.03 25-Dec-2016

 -----------------------------------------------------
 # opt freq 6-31+g(d,p) m062x scrf=(SMD,solvent=water)
 -----------------------------------------------------

 ----
 test
 ----
 Symbolic Z-matrix:
 Charge =  0 Multiplicity = 1

 SCF Done:  E(RM062X) =  -430.634937048     A.U. after   14 cycles
 SCF Done:  E(RM062X) =  -430.658619764     A.U. after   12 cycles
 SCF Done:  E(RM062X) =  -430.668533031     A.U. after   13 cycles
 SCF Done:  E(RM062X) =  -430.671872138     A.U. after   11 cycles
 SCF Done:  E(RM062X) =  -430.674709167     A.U. after   12 cycles
 SCF Done:  E(RM062X) =  -430.674968267     A.U. after   12 cycles
 SCF Done:  E(RM062X) =  -430.675873916     A.U. after   11 cycles
 SCF Done:  E(RM062X) =  -430.676283391     A.U. after   11 cycles
 SCF Done:  E(RM062X) =  -430.676323725     A.U. after   11 cycles
 SCF Done:  E(RM062X) =  -430.676336607     A.U. after   10 cycles
 SCF Done:  E(RM062X) =  -430.676416596     A.U. after   10 cycles
 SCF Done:  E(RM062X) =  -430.676417375     A.U. after    9 cycles
 SCF Done:  E(RM062X) =  -430.676418047     A.U. after    9 cycles
 SCF Done:  E(RM062X) =  -430.676418744     A.U. after    8 cycles
 SCF Done:  E(RM062X) =  -430.676419578     A.U. after    9 cycles
 SCF Done:  E(RM062X) =  -430.676420268     A.U. after    9 cycles
 SCF Done:  E(RM062X) =  -430.676420979     A.U. after    9 cycles
 SCF Done:  E(RM062X) =  -430.676421406     A.U. after    8 cycles
 SCF Done:  E(RM062X) =  -430.676421575     A.U. after    8 cycles
 Optimization completed.
    -- Stationary point found.
 Normal termination of Gaussian 16 at Thu Jul  6 20:41:55 2023.

 ----------------------------------------------------------------------
 #N Geom=AllCheck Guess=TCheck SCRF=Check GenChk RM062X/6-31+G(d,p) Fre
 q
 ----------------------------------------------------------------------

 Structure from the checkpoint file:  "/scratch/gongke2021/RC/Gau-22831.chk"
 ----
 test
 ----
 Charge =  0 Multiplicity = 1

                         Standard orientation:
 ---------------------------------------------------------------------
 Center     Atomic      Atomic             Coordinates (Angstroms)
 Number     Number       Type             X           Y           Z
 ---------------------------------------------------------------------
      1          7           0       -0.850163   -0.814060    0.000501
      2          7           0       -0.370387    0.413454    0.000443
      3          6           0       -1.462040    1.180044   -0.000074
      4          6           0       -2.584065    0.342353   -0.000374
      5          7           0       -2.162566   -0.923197   -0.000054
      6          1           0       -1.394606    2.257142   -0.000119
      7          1           0       -3.635000    0.586195   -0.000780
      8          1           0       -0.238396   -1.624232    0.000269
      9          6           0        2.405947   -0.045077   -0.000108
     10          8           0        2.726737    1.072213    0.000056
     11          8           0        2.122109   -1.174265   -0.000338
 ---------------------------------------------------------------------

 SCF Done:  E(RM062X) =  -430.676421575     A.U. after    1 cycles

 The electronic state is 1-A.
 Alpha  occ. eigenvalues --  -19.72971 -19.72942 -14.87974 -14.81421 -14.81329
 Alpha  occ. eigenvalues --  -10.75376 -10.58184 -10.58084  -1.29120  -1.24186
 Alpha  occ. eigenvalues --   -1.23850  -1.00937  -0.93187  -0.72133  -0.71771
 Alpha  occ. eigenvalues --   -0.66054  -0.63393  -0.60890  -0.60029  -0.59786
 Alpha  occ. eigenvalues --   -0.56302  -0.52240  -0.51460  -0.44451  -0.44406
 Alpha  occ. eigenvalues --   -0.40816  -0.38446  -0.36193  -0.33538
 Alpha virt. eigenvalues --    0.01104   0.02475   0.03398   0.04087   0.04923
 Alpha virt. eigenvalues --    0.05341   0.06234   0.06907   0.08058   0.08379
 Alpha virt. eigenvalues --    0.08733   0.08847   0.09173   0.10575   0.12962

 Mulliken charges:
               1
     1  N   -0.119473
     2  N   -0.163023
     3  C   -0.197711
     4  C   -0.136405
     5  N   -0.286021
     6  H    0.223352
     7  H    0.224836
     8  H    0.423487
     9  C    0.816986
    10  O   -0.396115
    11  O   -0.389913
 Sum of Mulliken charges =  -0.00000

 Dipole moment (field-independent basis, Debye):
    X=             -0.3444    Y=              0.3106    Z=             -0.0008  Tot=              0.4638
 Quadrupole moment (field-independent basis, Debye-Ang):
   XX=            -43.9532   YY=            -44.3626   ZZ=            -45.6711
   XY=             -8.8919   XZ=              0.0018   YZ=             -0.0025

  Exact polarizability:  80.094   4.267  97.239   0.012  -0.001  46.704
 Approx polarizability:  74.684   5.021  96.325   0.013  -0.001  43.740

                      1                      2                      3
                      A                      A                      A
 Frequencies --     15.8019                37.6689                52.7701
 Red. masses --      7.7872                 5.6533                 6.6296
 Frc consts  --      0.0011                 0.0047                 0.0109
 IR Inten    --      0.0287                 0.0171                 0.2384

                      4                      5                      6
                      A                      A                      A
 Frequencies --     97.2026               141.0052               633.2877
 Red. masses --     11.3824                10.6008                 1.9758
 Frc consts  --      0.0634                 0.1242                 0.4669
 IR Inten    --      0.3348                 0.0156                59.3945

                      7                      8                      9
                      A                      A                      A
 Frequencies --    642.6855               661.8908               682.9941
 Red. masses --     12.9152                12.8352                 3.5036
 Frc consts  --      3.1430                 3.3130                 0.9629
 IR Inten    --    102.3587                55.1675                 0.0624

                     10                     11                     12
                      A                      A                      A
 Frequencies --    732.1334               854.5443               921.3400
 Red. masses --      2.1678                 1.1650                 1.3975
 Frc consts  --      0.6846                 0.5012                 0.6989
 IR Inten    --     94.3197               115.5476                 0.0381

                     13                     14                     15
                      A                      A                      A
 Frequencies --    950.2672               977.6949              1101.2675
 Red. masses --      6.7260                 4.4881                 1.4769
 Frc consts  --      3.5785                 2.5276                 1.0554
 IR Inten    --     48.7179                22.2690                 4.3319

                     16                     17                     18
                      A                      A                      A
 Frequencies --   1156.0175              1185.8360              1299.6810
 Red. masses --      1.5225                 7.7683                 1.5693
 Frc consts  --      1.1988                 6.4361                 1.5618
 IR Inten    --    102.5692                40.2571                37.3363

                     19                     20                     21
                      A                      A                      A
 Frequencies --   1324.4597              1404.0319              1456.7328
 Red. masses --      8.5161                15.9872                 3.1863
 Frc consts  --      8.8017                18.5685                 3.9838
 IR Inten    --      0.4318                 0.7582                 3.9985

                     22                     23                     24
                      A                      A                      A
 Frequencies --   1488.4576              1573.3629              2379.0023
 Red. masses --      3.7143                 2.7594                12.8447
 Frc consts  --      4.8484                 4.0246                42.8317
 IR Inten    --     16.7089                 1.4811              1534.4793

                     25                     26                     27
                      A                      A                      A
 Frequencies --   3315.9883              3330.8602              3620.7749
 Red. masses --      1.0946                 1.1055                 1.0847
 Frc consts  --      7.0916                 7.2266                 8.3786
 IR Inten    --      1.4727                 1.8227               360.5194

 - Thermochemistry -
 -------------------
 Temperature   298.150 Kelvin.  Pressure   1.00000 Atm.
 Atom     1 has atomic number  7 and mass  14.00307

 Molecular mass:   113.02253 amu.
 Principal axes and moments of inertia in atomic units:
                           1         2         3
     Eigenvalues --   322.302801638.719121961.02184
           X            0.99991  -0.01333   0.00001
           Y            0.01333   0.99991  -0.00001
           Z           -0.00001   0.00001   1.00000
 This molecule is an asymmetric top.
 Rotational symmetry number  1.
 Rotational temperatures (Kelvin)      0.26873     0.05285     0.04417
 Rotational constants (GHZ):           5.59952     1.10131     0.92031
 Zero-point vibrational energy     191628.4 (Joules/Mol)
                                   45.80028 (Kcal/Mol)
 Warning -- explicit consideration of   5 degrees of freedom as
           vibrations may cause significant error
 Vibrational temperatures:     22.74    54.20    75.92   139.85   202.87
          (Kelvin)            911.16   924.68   952.31   982.68  1053.38
                             1229.50  1325.60  1367.22  1406.68  1584.48
                             1663.25  1706.15  1869.95  1905.60  2020.09
                             2095.91  2141.56  2263.72  3422.85  4770.97
                             4792.36  5209.49

 Zero-point correction=                           0.072987 (Hartree/Particle)
 Thermal correction to Energy=                    0.080752
 Thermal correction to Enthalpy=                  0.081696
 Thermal correction to Gibbs Free Energy=         0.036794
 Sum of electronic and zero-point Energies=           -430.603434
 Sum of electronic and thermal Energies=              -430.595670
 Sum of electronic and thermal Enthalpies=            -430.594726
 Sum of electronic and thermal Free Energies=         -430.639628

                     E (Thermal)             CV                S
                      KCal/Mol        Cal/Mol-Kelvin    Cal/Mol-Kelvin
 Total                   50.672             23.427             94.504
 Electronic               0.000              0.000              0.000
 Translational            0.889              2.981             40.083
 Rotational               0.889              2.981             28.428
 Vibrational             48.895             17.465             25.993
 Vibration     1          0.593              1.986              7.102
 Vibration     2          0.594              1.982              5.378
 Vibration     3          0.596              1.977              4.711
 Vibration     4          0.603              1.951              3.510
 Vibration     5          0.615              1.912              2.790

                           ! Non-Optimized Parameters !
 Normal termination of Gaussian 16 at Thu Jul  6 20:42:33 2023.
