 Gaussian 16, Revision A.03,
 Gaussian 16:  ES64L-G16RevA.03 25-Dec-2016

 ----------------------------------------------------------------------
 # opt=(calcfc,ts,noeigentest) freq 6-31+g(d,p) integral=grid=ultrafine
  m062x scrf=(SMD,solvent=water)
 ----------------------------------------------------------------------

 ----
 test
 ----
 Symbolic Z-matrix:
 Charge = -1 Multiplicity = 2

 SCF Done:  E(UM062X) =  -507.081447708     A.U. after   19 cycles
 SCF Done:  E(UM062X) =  -507.108807054     A.U. after   16 cycles
 SCF Done:  E(UM062X) =  -507.129012936     A.U. after   16 cycles
 SCF Done:  E(UM062X) =  -507.135336418     A.U. after   16 cycles
 SCF Done:  E(UM062X) =  -507.138495925     A.U. after   16 cycles
 SCF Done:  E(UM062X) =  -507.140885206     A.U. after   16 cycles
 SCF Done:  E(UM062X) =  -507.139343939     A.U. after   17 cycles
 SCF Done:  E(UM062X) =  -507.140108374     A.U. after   16 cycles
 SCF Done:  E(UM062X) =  -507.139413755     A.U. after   17 cycles
 SCF Done:  E(UM062X) =  -507.140290846     A.U. after   16 cycles
 SCF Done:  E(UM062X) =  -507.140043972     A.U. after   16 cycles
 SCF Done:  E(UM062X) =  -507.140399911     A.U. after   16 cycles
 SCF Done:  E(UM062X) =  -507.140303272     A.U. after   16 cycles
 SCF Done:  E(UM062X) =  -507.140445877     A.U. after   15 cycles
 SCF Done:  E(UM062X) =  -507.140447851     A.U. after   12 cycles
 SCF Done:  E(UM062X) =  -507.140449695     A.U. after   11 cycles
 SCF Done:  E(UM062X) =  -507.140449705     A.U. after   11 cycles
 SCF Done:  E(UM062X) =  -507.140450118     A.U. after   11 cycles
 SCF Done:  E(UM062X) =  -507.140450122     A.U. after   10 cycles
 Optimization completed.
    -- Stationary point found.
 Normal termination of Gaussian 16 at Tue Jul 11 13:02:51 2023.

 ----------------------------------------------------------------------
 #N Geom=AllCheck Guess=TCheck SCRF=Check GenChk UM062X/6-31+G(d,p) Fre
 q
 ----------------------------------------------------------------------

 Structure from the checkpoint file:  "/scratch/gongke2021/TS-H-cycle/Gau-7780.chk"
 ----
 test
 ----
 Charge = -1 Multiplicity = 2

                         Standard orientation:
 ---------------------------------------------------------------------
 Center     Atomic      Atomic             Coordinates (Angstroms)
 Number     Number       Type             X           Y           Z
 ---------------------------------------------------------------------
      1          7           0        0.071142   -0.995755   -0.048167
      2          7           0        0.520921    0.325911   -0.010623
      3          6           0        1.916558    0.344464    0.032248
      4          6           0        2.265813   -0.985712    0.020395
      5          7           0        1.178335   -1.786181   -0.026430
      6          1           0        2.486502    1.257638    0.065990
      7          1           0        3.263068   -1.404874    0.044337
      8          1           0       -1.794856   -0.799776   -0.041859
      9          6           0       -0.385637    1.359154   -0.008839
     10          8           0        0.059836    2.550281    0.023175
     11          8           0       -1.620730    1.011111   -0.041309
     12          1           0       -2.376692   -2.270011    0.366178
     13          8           0       -2.615247   -1.421553   -0.051700
     14          1           0       -3.342086   -1.016956    0.457736
 ---------------------------------------------------------------------

 SCF Done:  E(UM062X) =  -507.140450122     A.U. after    1 cycles

 The electronic state is 2-A.
 Alpha  occ. eigenvalues --  -19.74984 -19.59844 -19.59418 -14.80735 -14.77258
 Alpha  occ. eigenvalues --  -14.74999 -10.66319 -10.55156 -10.55068  -1.24851
 Alpha  occ. eigenvalues --   -1.18249  -1.12921  -1.06269  -0.97097  -0.86549
 Alpha  occ. eigenvalues --   -0.74583  -0.69220  -0.68354  -0.65972  -0.61566
 Alpha  occ. eigenvalues --   -0.55644  -0.54110  -0.52214  -0.50609  -0.49664
 Alpha  occ. eigenvalues --   -0.47051  -0.46457  -0.38296  -0.36492  -0.34624
 Alpha  occ. eigenvalues --   -0.34269  -0.33346  -0.32153  -0.30857  -0.13420
 Alpha virt. eigenvalues --    0.03031   0.04387   0.05523   0.06083   0.06648
 Alpha virt. eigenvalues --    0.07102   0.07444   0.08471   0.11179   0.11337
 Alpha virt. eigenvalues --    0.12367   0.12504   0.13573   0.14987   0.15856

  Beta  occ. eigenvalues --  -19.74983 -19.59766 -19.59293 -14.80590 -14.76656
  Beta  occ. eigenvalues --  -14.74704 -10.66241 -10.55221 -10.54897  -1.24847
  Beta  occ. eigenvalues --   -1.17570  -1.12058  -1.05912  -0.96111  -0.85538
  Beta  occ. eigenvalues --   -0.73429  -0.69213  -0.68325  -0.65471  -0.60780
  Beta  occ. eigenvalues --   -0.55303  -0.52530  -0.51849  -0.50280  -0.49278
  Beta  occ. eigenvalues --   -0.46687  -0.44642  -0.37217  -0.36142  -0.33033
  Beta  occ. eigenvalues --   -0.32661  -0.31708  -0.31629  -0.27387
  Beta virt. eigenvalues --    0.01976   0.02429   0.04126   0.04695   0.05618
  Beta virt. eigenvalues --    0.06350   0.06721   0.08040   0.08254   0.09991
  Beta virt. eigenvalues --    0.10928   0.12000   0.13002   0.13402   0.14761

 Mulliken charges and spin densities:
               1          2
     1  N   -0.310052   0.391147
     2  N   -0.270475   0.004234
     3  C   -0.189210   0.315091
     4  C   -0.208724  -0.140751
     5  N   -0.530498   0.233764
     6  H    0.212110  -0.013223
     7  H    0.186886   0.003803
     8  H    0.553717  -0.004153
     9  C    0.830156   0.104772
    10  O   -0.825210   0.058928
    11  O   -0.874998   0.043545
    12  H    0.493653  -0.000097
    13  O   -0.565044   0.003177
    14  H    0.497689  -0.000238
 Sum of Mulliken charges =  -1.00000   1.00000

 Dipole moment (field-independent basis, Debye):
    X=             -6.1579    Y=             -9.5970    Z=              2.3289  Tot=             11.6381
 Quadrupole moment (field-independent basis, Debye-Ang):
   XX=            -37.1471   YY=            -82.0899   ZZ=            -57.7940
   XY=             21.7328   XZ=             -6.3896   YZ=             -3.8010

  Exact polarizability: 141.709 -11.865 159.009   0.539   0.804  76.120
 Approx polarizability: 107.727  -3.186 120.668   0.511   0.691  63.882

 ******    1 imaginary frequencies (negative Signs) ******

                      1                      2                      3
                      A                      A                      A
 Frequencies --   -577.9956                62.8088               115.8048
 Red. masses --      1.0897                 6.1304                 7.6358
 Frc consts  --      0.2145                 0.0142                 0.0603
 IR Inten    --    114.9286                55.0084                 7.1315

                      4                      5                      6
                      A                      A                      A
 Frequencies --    149.0985               154.1560               235.6266
 Red. masses --      3.4545                 7.8296                 2.8235
 Frc consts  --      0.0452                 0.1096                 0.0924
 IR Inten    --     66.8222                14.7767               122.8001

                      7                      8                      9
                      A                      A                      A
 Frequencies --    241.2263               283.4709               413.8810
 Red. masses --      1.3803                 6.3638                12.3889
 Frc consts  --      0.0473                 0.3013                 1.2504
 IR Inten    --    104.4468                32.9341                41.4578

                     10                     11                     12
                      A                      A                      A
 Frequencies --    465.9157               533.6037               546.8868
 Red. masses --     11.5531                 1.1094                 1.2087
 Frc consts  --      1.4776                 0.1861                 0.2130
 IR Inten    --      3.5545               184.4247               137.3721

                     13                     14                     15
                      A                      A                      A
 Frequencies --    579.2399               617.0925               725.1549
 Red. masses --      9.1766                 4.6517                12.2696
 Frc consts  --      1.8141                 1.0437                 3.8014
 IR Inten    --     21.0904                 2.4803                59.4223

                     16                     17                     18
                      A                      A                      A
 Frequencies --    782.5187               888.0928               927.0421
 Red. masses --     11.8641                 1.2645                 4.7531
 Frc consts  --      4.2803                 0.5876                 2.4067
 IR Inten    --     33.0672                20.9983                50.8030

                     19                     20                     21
                      A                      A                      A
 Frequencies --    957.2443              1052.1293              1095.3839
 Red. masses --      5.4779                 2.3905                 2.2950
 Frc consts  --      2.9574                 1.5591                 1.6225
 IR Inten    --     31.3803               380.8711               150.2813

                     22                     23                     24
                      A                      A                      A
 Frequencies --   1141.7849              1175.7798              1224.7412
 Red. masses --      1.1250                 4.1500                 3.2127
 Frc consts  --      0.8641                 3.3803                 2.8393
 IR Inten    --    454.0579               390.2960                44.5403

                     25                     26                     27
                      A                      A                      A
 Frequencies --   1309.7240              1379.2393              1406.9577
 Red. masses --      6.4651                 1.9417                 1.8019
 Frc consts  --      6.5341                 2.1762                 2.1016
 IR Inten    --    166.6165                52.0259               350.9429

                     28                     29                     30
                      A                      A                      A
 Frequencies --   1476.2928              1528.9530              1555.6179
 Red. masses --      4.0335                 6.1774                 7.0140
 Frc consts  --      5.1794                 8.5083                10.0005
 IR Inten    --   1251.3847               657.8857              1188.0441

                     31                     32                     33
                      A                      A                      A
 Frequencies --   1638.2883              2753.4529              3276.8221
 Red. masses --      1.0582                 1.0739                 1.0960
 Frc consts  --      1.6734                 4.7971                 6.9340
 IR Inten    --    129.0629              2951.7225                11.2827

                     34                     35                     36
                      A                      A                      A
 Frequencies --   3341.5185              3718.4427              3790.2787
 Red. masses --      1.0995                 1.0439                 1.0854
 Frc consts  --      7.2329                 8.5038                 9.1872
 IR Inten    --     14.4120               245.9275               468.7043

 - Thermochemistry -
 -------------------
 Temperature   298.150 Kelvin.  Pressure   1.00000 Atm.
 Atom     1 has atomic number  7 and mass  14.00307

 Molecular mass:   131.03309 amu.
 Principal axes and moments of inertia in atomic units:
                           1         2         3
     Eigenvalues --   919.819521146.685552063.14871
           X            0.99022   0.13937  -0.00645
           Y           -0.13940   0.99022  -0.00511
           Z            0.00567   0.00596   0.99997
 This molecule is an asymmetric top.
 Rotational symmetry number  1.
 Warning -- assumption of classical behavior for rotation
           may cause significant error
 Rotational temperatures (Kelvin)      0.09416     0.07553     0.04198
 Rotational constants (GHZ):           1.96206     1.57388     0.87475
    1 imaginary frequencies ignored.
 Zero-point vibrational energy     248489.9 (Joules/Mol)
                                   59.39052 (Kcal/Mol)
 Warning -- explicit consideration of  13 degrees of freedom as
           vibrations may cause significant error
 Vibrational temperatures:     90.37   166.62   214.52   221.80   339.01
          (Kelvin)            347.07   407.85   595.48   670.35   767.74
                              786.85   833.40   887.86  1043.34  1125.87
                             1277.77  1333.81  1377.26  1513.78  1576.01
                             1642.77  1691.68  1762.13  1884.40  1984.42
                             2024.30  2124.06  2199.82  2238.19  2357.13
                             3961.60  4714.62  4807.70  5350.01  5453.37

 Zero-point correction=                           0.094645 (Hartree/Particle)
 Thermal correction to Energy=                    0.103468
 Thermal correction to Enthalpy=                  0.104412
 Thermal correction to Gibbs Free Energy=         0.059745
 Sum of electronic and zero-point Energies=           -507.045805
 Sum of electronic and thermal Energies=              -507.036982
 Sum of electronic and thermal Enthalpies=            -507.036038
 Sum of electronic and thermal Free Energies=         -507.080705

                     E (Thermal)             CV                S
                      KCal/Mol        Cal/Mol-Kelvin    Cal/Mol-Kelvin
 Total                   64.927             30.850             94.009
 Electronic               0.000              0.000              1.377
 Translational            0.889              2.981             40.524
 Rotational               0.889              2.981             29.166
 Vibrational             63.150             24.888             22.942
 Vibration     1          0.597              1.972              4.367
 Vibration     2          0.608              1.936              3.169
 Vibration     3          0.618              1.904              2.684
 Vibration     4          0.620              1.898              2.620
 Vibration     5          0.655              1.786              1.836
 Vibration     6          0.658              1.777              1.794
 Vibration     7          0.682              1.704              1.513
 Vibration     8          0.777              1.440              0.913
 Vibration     9          0.823              1.326              0.749
 Vibration    10          0.889              1.176              0.579
 Vibration    11          0.902              1.146              0.551
 Vibration    12          0.936              1.076              0.487
 Vibration    13          0.977              0.996              0.421

 Optimization completed.
    -- Stationary point found.
 Normal termination of Gaussian 16 at Tue Jul 11 13:04:18 2023.
