 Gaussian 16, Revision A.03,
 Gaussian 16:  ES64L-G16RevA.03 25-Dec-2016

 ----------------------------------------------------------------------
 # opt=(calcfc,ts,noeigentest) freq 6-31+g(d,p) scrf=(SMD,solvent=water
 ) integral=grid=ultrafine m062x
 ----------------------------------------------------------------------

 ----
 test
 ----
 Symbolic Z-matrix:
 Charge = -1 Multiplicity = 2

 SCF Done:  E(UM062X) =  -583.440074306     A.U. after   19 cycles
 SCF Done:  E(UM062X) =  -583.471212090     A.U. after   16 cycles
 SCF Done:  E(UM062X) =  -583.500525916     A.U. after   16 cycles
 SCF Done:  E(UM062X) =  -583.524894699     A.U. after   16 cycles
 SCF Done:  E(UM062X) =  -583.542039222     A.U. after   16 cycles
 SCF Done:  E(UM062X) =  -583.554256176     A.U. after   15 cycles
 SCF Done:  E(UM062X) =  -583.561006475     A.U. after   16 cycles
 SCF Done:  E(UM062X) =  -583.566425010     A.U. after   16 cycles
 SCF Done:  E(UM062X) =  -583.569635805     A.U. after   14 cycles
 SCF Done:  E(UM062X) =  -583.572005594     A.U. after   15 cycles
 SCF Done:  E(UM062X) =  -583.580958416     A.U. after   15 cycles
 SCF Done:  E(UM062X) =  -583.581353911     A.U. after   15 cycles
 SCF Done:  E(UM062X) =  -583.581268678     A.U. after   16 cycles
 SCF Done:  E(UM062X) =  -583.581398394     A.U. after   15 cycles
 SCF Done:  E(UM062X) =  -583.581401367     A.U. after   13 cycles
 SCF Done:  E(UM062X) =  -583.581401411     A.U. after   11 cycles
 SCF Done:  E(UM062X) =  -583.581401128     A.U. after   12 cycles
 SCF Done:  E(UM062X) =  -583.581401675     A.U. after   11 cycles
 SCF Done:  E(UM062X) =  -583.581402294     A.U. after   11 cycles
 Optimization completed.
    -- Stationary point found.
 Normal termination of Gaussian 16 at Wed Jul 12 11:24:54 2023.

 ----------------------------------------------------------------------
 #N Geom=AllCheck Guess=TCheck SCRF=Check GenChk UM062X/6-31+G(d,p) Fre
 q
 ----------------------------------------------------------------------

 Structure from the checkpoint file:  "/scratch/gongke2021/TS/Gau-7916.chk"
 ----
 test
 ----
 Charge = -1 Multiplicity = 2

                         Standard orientation:
 ---------------------------------------------------------------------
 Center     Atomic      Atomic             Coordinates (Angstroms)
 Number     Number       Type             X           Y           Z
 ---------------------------------------------------------------------
      1          7           0        0.107860   -0.904732    0.312347
      2          7           0        0.807664    0.250044   -0.076986
      3          6           0        2.164784   -0.066425   -0.116821
      4          6           0        2.229824   -1.400811    0.190966
      5          7           0        1.009972   -1.925135    0.415971
      6          1           0        2.915040    0.672404   -0.341133
      7          1           0        3.115944   -2.016079    0.255437
      8          1           0       -0.817194   -1.196455   -0.321004
      9          6           0        0.289896    1.523602   -0.081868
     10          8           0        1.037385    2.478876   -0.343917
     11          8           0       -0.984467    1.695463    0.172448
     12          1           0       -2.553140   -0.677087   -0.099151
     13          8           0       -1.973904   -1.605778   -0.919118
     14          1           0       -1.991786   -1.299070   -1.834989
     15          1           0       -1.693948    0.907813    0.407698
     16          8           0       -2.796508    0.127933    0.583565
     17          1           0       -2.820464   -0.242911    1.476331
 ---------------------------------------------------------------------

 SCF Done:  E(UM062X) =  -583.581402294     A.U. after    1 cycles

 The electronic state is 2-A.
 Alpha  occ. eigenvalues --  -19.65904 -19.63506 -19.62435 -19.59824 -14.84539
 Alpha  occ. eigenvalues --  -14.81637 -14.77999 -10.71074 -10.57863 -10.57304
 Alpha  occ. eigenvalues --   -1.23047  -1.17621  -1.13219  -1.10969  -1.05383
 Alpha  occ. eigenvalues --   -1.01121  -0.90608  -0.78804  -0.69907  -0.68452
 Alpha  occ. eigenvalues --   -0.67026  -0.60090  -0.58679  -0.55237  -0.54834
 Alpha  occ. eigenvalues --   -0.52509  -0.51030  -0.49924  -0.48538  -0.45590
 Alpha  occ. eigenvalues --   -0.44868  -0.40362  -0.39439  -0.38508  -0.37390
 Alpha  occ. eigenvalues --   -0.36733  -0.35599  -0.35067  -0.33613  -0.18152
 Alpha virt. eigenvalues --    0.02668   0.04114   0.05129   0.05312   0.05576
 Alpha virt. eigenvalues --    0.06481   0.07461   0.08596   0.09549   0.09920
 Alpha virt. eigenvalues --    0.11766   0.12514   0.13264   0.14068   0.15497

  Beta  occ. eigenvalues --  -19.65856 -19.63503 -19.62308 -19.59791 -14.84380
  Beta  occ. eigenvalues --  -14.81201 -14.77507 -10.71021 -10.57623 -10.57417
  Beta  occ. eigenvalues --   -1.22594  -1.16715  -1.13056  -1.10797  -1.05273
  Beta  occ. eigenvalues --   -0.99938  -0.89646  -0.77604  -0.69490  -0.68081
  Beta  occ. eigenvalues --   -0.66338  -0.60010  -0.57154  -0.54553  -0.54375
  Beta  occ. eigenvalues --   -0.52168  -0.50349  -0.49449  -0.47485  -0.45219
  Beta  occ. eigenvalues --   -0.44759  -0.39970  -0.37981  -0.37752  -0.35841
  Beta  occ. eigenvalues --   -0.35472  -0.34440  -0.34178  -0.30841
  Beta virt. eigenvalues --   -0.02008   0.02355   0.04036   0.04915   0.05017
  Beta virt. eigenvalues --    0.06254   0.07194   0.07304   0.08513   0.09382
  Beta virt. eigenvalues --    0.10711   0.11364   0.12487   0.13199   0.13832

 Mulliken charges and spin densities:
               1          2
     1  N   -0.207426   0.224927
     2  N   -0.282803   0.027705
     3  C   -0.143418   0.369411
     4  C   -0.194662  -0.169878
     5  N   -0.400486   0.383294
     6  H    0.238598  -0.014690
     7  H    0.214455   0.004551
     8  H    0.473830   0.009695
     9  C    0.850243   0.069272
    10  O   -0.684872   0.062508
    11  O   -0.709233   0.017572
    12  H    0.543049  -0.000162
    13  O   -1.137853   0.014161
    14  H    0.424380  -0.000265
    15  H    0.548232  -0.000077
    16  O   -0.991108   0.002204
    17  H    0.459073  -0.000227
 Sum of Mulliken charges =  -1.00000   1.00000

 Dipole moment (field-independent basis, Debye):
    X=              2.9117    Y=             -1.8834    Z=              0.6670  Tot=              3.5313
 Quadrupole moment (field-independent basis, Debye-Ang):
   XX=            -69.8354   YY=            -99.2528   ZZ=            -58.2639
   XY=             -7.1357   XZ=             -3.0469   YZ=              0.9500

  Exact polarizability: 143.140  -0.591 162.009  -4.717  -9.432  85.121
 Approx polarizability: 112.511   2.922 124.847  -4.721  -8.119  74.250

 ******    1 imaginary frequencies (negative Signs) ******

                      1                      2                      3
                      A                      A                      A
 Frequencies --   -560.6019                42.1086                73.0593
 Red. masses --      1.7320                 5.6140                 6.2792
 Frc consts  --      0.3207                 0.0059                 0.0197
 IR Inten    --   1443.3734                24.9425                 7.0581

                      4                      5                      6
                      A                      A                      A
 Frequencies --    118.1819               149.7631               155.3525
 Red. masses --      6.9668                 6.0934                 7.3396
 Frc consts  --      0.0573                 0.0805                 0.1044
 IR Inten    --     18.1740                15.2374                18.0035

                      7                      8                      9
                      A                      A                      A
 Frequencies --    236.5560               292.0799               401.1307
 Red. masses --      6.1061                 5.4919                 4.3700
 Frc consts  --      0.2013                 0.2760                 0.4143
 IR Inten    --     32.6622              1109.5152                82.3290

                     10                     11                     12
                      A                      A                      A
 Frequencies --    412.4156               432.0295               465.9982
 Red. masses --      1.2295                 4.3352                 2.3446
 Frc consts  --      0.1232                 0.4767                 0.3000
 IR Inten    --    452.9222               359.3945                61.3159

                     13                     14                     15
                      A                      A                      A
 Frequencies --    482.8075               507.2240               557.1213
 Red. masses --      1.5557                 1.4792                 4.0963
 Frc consts  --      0.2137                 0.2242                 0.7491
 IR Inten    --     49.9152                85.1668                78.5527

                     16                     17                     18
                      A                      A                      A
 Frequencies --    596.7501               632.9610               692.6026
 Red. masses --      3.5415                 1.3409                 3.1857
 Frc consts  --      0.7431                 0.3165                 0.9004
 IR Inten    --     34.7293               217.6296                23.6541

                     19                     20                     21
                      A                      A                      A
 Frequencies --    705.7085               728.2175               818.8175
 Red. masses --      1.5451                 4.8075                 3.6442
 Frc consts  --      0.4534                 1.5021                 1.4396
 IR Inten    --      8.4612                63.2337              1257.6922

                     22                     23                     24
                      A                      A                      A
 Frequencies --    914.6502               930.9967              1008.6796
 Red. masses --      1.3266                 4.6149                 1.8763
 Frc consts  --      0.6539                 2.3567                 1.1248
 IR Inten    --     20.2654                22.1913               230.8279

                     25                     26                     27
                      A                      A                      A
 Frequencies --   1066.3780              1087.8686              1170.7054
 Red. masses --      1.7006                 1.7679                 1.7336
 Frc consts  --      1.1394                 1.2327                 1.3999
 IR Inten    --     63.5187               149.0651               902.7794

                     28                     29                     30
                      A                      A                      A
 Frequencies --   1208.4190              1225.9388              1250.3758
 Red. masses --      1.9269                 2.7250                 4.0465
 Frc consts  --      1.6579                 2.4130                 3.7274
 IR Inten    --   1301.3186              1694.9603                65.2693

                     31                     32                     33
                      A                      A                      A
 Frequencies --   1284.5984              1356.5739              1390.9795
 Red. masses --      1.2784                 1.6391                 2.4013
 Frc consts  --      1.2430                 1.7772                 2.7374
 IR Inten    --   1704.8777               453.5124               359.2006

                     34                     35                     36
                      A                      A                      A
 Frequencies --   1440.2320              1472.4745              1531.7332
 Red. masses --      1.7233                 2.8426                 3.7922
 Frc consts  --      2.1061                 3.6313                 5.2422
 IR Inten    --    587.6866               879.3165               178.6243

                     37                     38                     39
                      A                      A                      A
 Frequencies --   1595.5734              1648.8723              1661.0516
 Red. masses --      1.1300                 5.3968                 1.1022
 Frc consts  --      1.6949                 8.6449                 1.7918
 IR Inten    --    490.5823              1360.9190               463.6613

                     40                     41                     42
                      A                      A                      A
 Frequencies --   1760.4675              2035.1669              3301.2975
 Red. masses --      1.1909                 1.1079                 1.0971
 Frc consts  --      2.1746                 2.7037                 7.0448
 IR Inten    --   3984.0576              2438.3723                 2.1006

                     43                     44                     45
                      A                      A                      A
 Frequencies --   3349.2812              3871.9370              3883.6253
 Red. masses --      1.1011                 1.0654                 1.0663
 Frc consts  --      7.2776                 9.4109                 9.4757
 IR Inten    --     26.8168               145.0858                57.2819

 - Thermochemistry -
 -------------------
 Temperature   298.150 Kelvin.  Pressure   1.00000 Atm.
 Atom     1 has atomic number  7 and mass  14.00307

 Molecular mass:   149.04366 amu.
 Principal axes and moments of inertia in atomic units:
                           1         2         3
     Eigenvalues --  1222.529661546.029112540.61243
           X            0.99999   0.00273  -0.00234
           Y           -0.00271   0.99997   0.00756
           Z            0.00236  -0.00755   0.99997
 This molecule is an asymmetric top.
 Rotational symmetry number  1.
 Warning -- assumption of classical behavior for rotation
           may cause significant error
 Rotational temperatures (Kelvin)      0.07085     0.05602     0.03409
 Rotational constants (GHZ):           1.47624     1.16734     0.71036
    1 imaginary frequencies ignored.
 Zero-point vibrational energy     298759.9 (Joules/Mol)
                                   71.40534 (Kcal/Mol)
 Warning -- explicit consideration of  15 degrees of freedom as
           vibrations may cause significant error
 Vibrational temperatures:     60.58   105.12   170.04   215.48   223.52
          (Kelvin)            340.35   420.24   577.14   593.37   621.59
                              670.47   694.65   729.78   801.57   858.59
                              910.69   996.50  1015.36  1047.74  1178.10
                             1315.98  1339.50  1451.26  1534.28  1565.20
                             1684.38  1738.65  1763.85  1799.01  1848.25
                             1951.81  2001.31  2072.17  2118.56  2203.82
                             2295.67  2372.36  2389.88  2532.92  2928.15
                             4749.83  4818.87  5570.85  5587.67

 Zero-point correction=                           0.113792 (Hartree/Particle)
 Thermal correction to Energy=                    0.123968
 Thermal correction to Enthalpy=                  0.124912
 Thermal correction to Gibbs Free Energy=         0.076819
 Sum of electronic and zero-point Energies=           -583.467611
 Sum of electronic and thermal Energies=              -583.457434
 Sum of electronic and thermal Enthalpies=            -583.456490
 Sum of electronic and thermal Free Energies=         -583.504584

                     E (Thermal)             CV                S
                      KCal/Mol        Cal/Mol-Kelvin    Cal/Mol-Kelvin
 Total                   77.791             36.962            101.221
 Electronic               0.000              0.000              1.377
 Translational            0.889              2.981             40.908
 Rotational               0.889              2.981             29.953
 Vibrational             76.014             31.000             28.983
 Vibration     1          0.595              1.980              5.157
 Vibration     2          0.599              1.967              4.069
 Vibration     3          0.608              1.934              3.130
 Vibration     4          0.618              1.903              2.675
 Vibration     5          0.620              1.897              2.606
 Vibration     6          0.655              1.785              1.829
 Vibration     7          0.687              1.688              1.462
 Vibration     8          0.767              1.468              0.959
 Vibration     9          0.776              1.443              0.918
 Vibration    10          0.793              1.400              0.852
 Vibration    11          0.823              1.325              0.749
 Vibration    12          0.839              1.288              0.703
 Vibration    13          0.862              1.234              0.640
 Vibration    14          0.913              1.124              0.530
 Vibration    15          0.955              1.039              0.455

                           ! Non-Optimized Parameters !
 Normal termination of Gaussian 16 at Wed Jul 12 11:29:06 2023.
