 Gaussian 16, Revision A.03,
 Gaussian 16:  ES64L-G16RevA.03 25-Dec-2016

 -----------------------------------------------------
 # opt freq 6-31+g(d,p) m062x scrf=(SMD,solvent=water)
 -----------------------------------------------------

 ----
 test
 ----
 Symbolic Z-matrix:
 Charge = -1 Multiplicity = 2

 SCF Done:  E(UM062X) =  -430.730412956     A.U. after   19 cycles
 SCF Done:  E(UM062X) =  -430.744164010     A.U. after   16 cycles
 SCF Done:  E(UM062X) =  -430.749031008     A.U. after   17 cycles
 SCF Done:  E(UM062X) =  -430.753475662     A.U. after   17 cycles
 SCF Done:  E(UM062X) =  -430.755554544     A.U. after   17 cycles
 SCF Done:  E(UM062X) =  -430.756786640     A.U. after   17 cycles
 SCF Done:  E(UM062X) =  -430.757248947     A.U. after   15 cycles
 SCF Done:  E(UM062X) =  -430.757392423     A.U. after   14 cycles
 SCF Done:  E(UM062X) =  -430.757433729     A.U. after   13 cycles
 SCF Done:  E(UM062X) =  -430.757445749     A.U. after   13 cycles
 SCF Done:  E(UM062X) =  -430.757453752     A.U. after   12 cycles
 SCF Done:  E(UM062X) =  -430.757454983     A.U. after   11 cycles
 Optimization completed.
    -- Stationary point found.
 Normal termination of Gaussian 16 at Thu Jul  6 21:05:12 2023.

 ----------------------------------------------------------------------
 #N Geom=AllCheck Guess=TCheck SCRF=Check GenChk UM062X/6-31+G(d,p) Fre
 q
 ----------------------------------------------------------------------

 Structure from the checkpoint file:  "/scratch/gongke2021/PC/Gau-16984.chk"
 ----
 test
 ----
 Charge = -1 Multiplicity = 2

                         Standard orientation:
 ---------------------------------------------------------------------
 Center     Atomic      Atomic             Coordinates (Angstroms)
 Number     Number       Type             X           Y           Z
 ---------------------------------------------------------------------
      1          7           0       -0.703338   -1.125262   -0.000135
      2          7           0       -0.006518    0.087212    0.000178
      3          6           0       -0.906154    1.152804   -0.000295
      4          6           0       -2.136335    0.535093    0.000034
      5          7           0       -2.011092   -0.807965    0.000222
      6          1           0       -0.585954    2.180939   -0.000564
      7          1           0       -3.110203    1.004483    0.000119
      8          1           0        1.267874   -1.791356   -0.002193
      9          6           0        1.339353    0.125020    0.000139
     10          8           0        2.013763    1.173004    0.000042
     11          8           0        1.947954   -1.091685    0.000149
 ---------------------------------------------------------------------

 SCF Done:  E(UM062X) =  -430.757454983     A.U. after    1 cycles

 The electronic state is 2-A.
 Alpha  occ. eigenvalues --  -19.68252 -19.62189 -14.83797 -14.78955 -14.76349
 Alpha  occ. eigenvalues --  -10.69382 -10.56376 -10.56022  -1.23207  -1.16313
 Alpha  occ. eigenvalues --   -1.12683  -1.00075  -0.88045  -0.77840  -0.68417
 Alpha  occ. eigenvalues --   -0.67633  -0.62925  -0.56743  -0.53766  -0.52382
 Alpha  occ. eigenvalues --   -0.49681  -0.49103  -0.46988  -0.40459  -0.39316
 Alpha  occ. eigenvalues --   -0.37363  -0.36130  -0.33935  -0.31885  -0.15196
 Alpha virt. eigenvalues --    0.02712   0.04157   0.05299   0.05605   0.06479
 Alpha virt. eigenvalues --    0.06902   0.07124   0.08731   0.10063   0.10805
 Alpha virt. eigenvalues --    0.11509   0.13225   0.14486   0.14919   0.17106

  Beta  occ. eigenvalues --  -19.68198 -19.61947 -14.83824 -14.78403 -14.76091
  Beta  occ. eigenvalues --  -10.69209 -10.56178 -10.56083  -1.22725  -1.15526
  Beta  occ. eigenvalues --   -1.12058  -0.99273  -0.87121  -0.76707  -0.68004
  Beta  occ. eigenvalues --   -0.67248  -0.62222  -0.55122  -0.53171  -0.52136
  Beta  occ. eigenvalues --   -0.49181  -0.47313  -0.46775  -0.38657  -0.38503
  Beta  occ. eigenvalues --   -0.36657  -0.33696  -0.33072  -0.28632
  Beta virt. eigenvalues --    0.00348   0.02258   0.04009   0.04930   0.05083
  Beta virt. eigenvalues --    0.06321   0.06850   0.07947   0.08566   0.10129
  Beta virt. eigenvalues --    0.11120   0.12204   0.13002   0.14333   0.14659

 Mulliken charges and spin densities:
               1          2
     1  N   -0.427719   0.359935
     2  N   -0.103567  -0.068283
     3  C   -0.194658   0.315771
     4  C   -0.197540  -0.121450
     5  N   -0.377642   0.199386
     6  H    0.226840  -0.013236
     7  H    0.197964   0.003095
     8  H    0.450194  -0.001907
     9  C    0.747834   0.200169
    10  O   -0.728776   0.108834
    11  O   -0.592932   0.017686
 Sum of Mulliken charges =  -1.00000   1.00000

 Dipole moment (field-independent basis, Debye):
    X=             -2.2928    Y=              1.0820    Z=             -0.0052  Tot=              2.5353
 Quadrupole moment (field-independent basis, Debye-Ang):
   XX=            -71.7597   YY=            -54.0975   ZZ=            -50.2296
   XY=            -14.2219   XZ=             -0.0055   YZ=              0.0096

  Exact polarizability: 159.163  13.708 114.355   0.001  -0.004  60.516
 Approx polarizability: 114.291  10.303  96.884   0.001  -0.002  52.974

                      1                      2                      3
                      A                      A                      A
 Frequencies --    118.8001               153.8168               214.2597
 Red. masses --      5.0118                 6.9305                 6.2254
 Frc consts  --      0.0417                 0.0966                 0.1684
 IR Inten    --     35.1832                32.1252                56.6165

                      4                      5                      6
                      A                      A                      A
 Frequencies --    388.6938               438.1412               467.7316
 Red. masses --      1.1813                 7.2043                11.1426
 Frc consts  --      0.1052                 0.8148                 1.4362
 IR Inten    --    182.8909                 0.7551                27.2351

                      7                      8                      9
                      A                      A                      A
 Frequencies --    556.2089               564.9828               618.5205
 Red. masses --      7.0928                 1.1790                 7.9278
 Frc consts  --      1.2928                 0.2217                 1.7869
 IR Inten    --     25.6259               134.1686                31.1998

                     10                     11                     12
                      A                      A                      A
 Frequencies --    629.7994               715.9518               889.4670
 Red. masses --      6.3001                 9.6595                 1.2717
 Frc consts  --      1.4723                 2.9172                 0.5928
 IR Inten    --      0.6815                23.2970                23.5329

                     13                     14                     15
                      A                      A                      A
 Frequencies --    908.5559               945.2835              1037.5308
 Red. masses --      4.9531                 5.7780                 2.7693
 Frc consts  --      2.4090                 3.0420                 1.7564
 IR Inten    --     73.1002                37.4295               278.8359

                     16                     17                     18
                      A                      A                      A
 Frequencies --   1093.5742              1112.7489              1206.8615
 Red. masses --      2.9129                 2.2491                 3.4569
 Frc consts  --      2.0525                 1.6408                 2.9666
 IR Inten    --    265.8962               294.4320                 1.5570

                     19                     20                     21
                      A                      A                      A
 Frequencies --   1264.2202              1287.5840              1400.6690
 Red. masses --      1.4601                 4.0278                 3.4716
 Frc consts  --      1.3749                 3.9343                 4.0128
 IR Inten    --    399.4389               150.6661               124.9540

                     22                     23                     24
                      A                      A                      A
 Frequencies --   1491.9593              1495.4341              1701.5451
 Red. masses --      6.1572                 5.1129                 8.2787
 Frc consts  --      8.0751                 6.7367                14.1221
 IR Inten    --     94.2501               261.9159              1714.6210

                     25                     26                     27
                      A                      A                      A
 Frequencies --   3290.2643              3347.0456              3701.9311
 Red. masses --      1.0965                 1.1005                 1.0657
 Frc consts  --      6.9942                 7.2640                 8.6046
 IR Inten    --      6.0813                15.9050               169.6558

 - Thermochemistry -
 -------------------
 Temperature   298.150 Kelvin.  Pressure   1.00000 Atm.
 Atom     1 has atomic number  7 and mass  14.00307

 Molecular mass:   113.02253 amu.
 Principal axes and moments of inertia in atomic units:
                           1         2         3
     Eigenvalues --   344.304321025.480601369.78487
           X            0.99939  -0.03492  -0.00001
           Y            0.03492   0.99939   0.00003
           Z            0.00001  -0.00003   1.00000
 This molecule is an asymmetric top.
 Rotational symmetry number  1.
 Rotational temperatures (Kelvin)      0.25156     0.08446     0.06323
 Rotational constants (GHZ):           5.24170     1.75990     1.31754
 Zero-point vibrational energy     185669.9 (Joules/Mol)
                                   44.37617 (Kcal/Mol)
 Warning -- explicit consideration of   9 degrees of freedom as
           vibrations may cause significant error
 Vibrational temperatures:    170.93   221.31   308.27   559.24   630.39
          (Kelvin)            672.96   800.26   812.88   889.91   906.14
                             1030.09  1279.74  1307.21  1360.05  1492.78
                             1573.41  1601.00  1736.40  1818.93  1852.55
                             2015.25  2146.60  2151.60  2448.14  4733.96
                             4815.65  5326.25

 Zero-point correction=                           0.070718 (Hartree/Particle)
 Thermal correction to Energy=                    0.077331
 Thermal correction to Enthalpy=                  0.078275
 Thermal correction to Gibbs Free Energy=         0.039140
 Sum of electronic and zero-point Energies=           -430.686737
 Sum of electronic and thermal Energies=              -430.680124
 Sum of electronic and thermal Enthalpies=            -430.679180
 Sum of electronic and thermal Free Energies=         -430.718315

                     E (Thermal)             CV                S
                      KCal/Mol        Cal/Mol-Kelvin    Cal/Mol-Kelvin
 Total                   48.526             23.963             82.367
 Electronic               0.000              0.000              1.377
 Translational            0.889              2.981             40.083
 Rotational               0.889              2.981             27.672
 Vibrational             46.749             18.002             13.234
 Vibration     1          0.609              1.934              3.120
 Vibration     2          0.619              1.898              2.624
 Vibration     3          0.644              1.819              2.007
 Vibration     4          0.757              1.494              1.005
 Vibration     5          0.798              1.387              0.832
 Vibration     6          0.825              1.322              0.744
 Vibration     7          0.912              1.126              0.531
 Vibration     8          0.921              1.107              0.514
 Vibration     9          0.978              0.993              0.419

                           ! Non-Optimized Parameters !
 Normal termination of Gaussian 16 at Thu Jul  6 21:06:11 2023.
