 Gaussian 16, Revision A.03,
 Gaussian 16:  ES64L-G16RevA.03 25-Dec-2016

 ----------------------------------------------------------------------
 # opt=(calcfc,ts,noeigentest) freq 6-31+g(d,p) integral=grid=ultrafine
  m062x scrf=(SMD,solvent=water)
 ----------------------------------------------------------------------

 ----
 test
 ----
 Symbolic Z-matrix:
 Charge =  0 Multiplicity = 1

 SCF Done:  E(RM062X) =  -430.554777390     A.U. after   15 cycles
 SCF Done:  E(RM062X) =  -430.586143580     A.U. after   13 cycles
 SCF Done:  E(RM062X) =  -430.617913155     A.U. after   13 cycles
 SCF Done:  E(RM062X) =  -430.627605299     A.U. after   13 cycles
 SCF Done:  E(RM062X) =  -430.638730246     A.U. after   13 cycles
 SCF Done:  E(RM062X) =  -430.636975560     A.U. after   13 cycles
 SCF Done:  E(RM062X) =  -430.636495236     A.U. after   13 cycles
 SCF Done:  E(RM062X) =  -430.639574135     A.U. after   13 cycles
 SCF Done:  E(RM062X) =  -430.639773651     A.U. after   12 cycles
 SCF Done:  E(RM062X) =  -430.637230834     A.U. after   13 cycles
 SCF Done:  E(RM062X) =  -430.639668281     A.U. after   13 cycles
 SCF Done:  E(RM062X) =  -430.638115886     A.U. after   13 cycles
 SCF Done:  E(RM062X) =  -430.637946920     A.U. after   14 cycles
 SCF Done:  E(RM062X) =  -430.639893004     A.U. after   12 cycles
 SCF Done:  E(RM062X) =  -430.639965078     A.U. after   12 cycles
 SCF Done:  E(RM062X) =  -430.640023872     A.U. after   11 cycles
 SCF Done:  E(RM062X) =  -430.640023659     A.U. after    9 cycles
 SCF Done:  E(RM062X) =  -430.640023693     A.U. after    9 cycles
 SCF Done:  E(RM062X) =  -430.640023677     A.U. after    8 cycles
 Optimization completed.
    -- Stationary point found.
 Normal termination of Gaussian 16 at Thu Jul  6 20:48:04 2023.

 ----------------------------------------------------------------------
 #N Geom=AllCheck Guess=TCheck SCRF=Check GenChk RM062X/6-31+G(d,p) Fre
 q
 ----------------------------------------------------------------------

 Structure from the checkpoint file:  "/scratch/gongke2021/TS/Gau-32164.chk"
 ----
 test
 ----
 Charge =  0 Multiplicity = 1

                         Standard orientation:
 ---------------------------------------------------------------------
 Center     Atomic      Atomic             Coordinates (Angstroms)
 Number     Number       Type             X           Y           Z
 ---------------------------------------------------------------------
      1          7           0        0.598709   -0.954964   -0.000382
      2          7           0        0.021429    0.235194   -0.000471
      3          6           0        0.961736    1.191162   -0.000013
      4          6           0        2.152389    0.481212    0.000266
      5          7           0        1.883898   -0.849330    0.000123
      6          1           0        0.729710    2.245176   -0.000061
      7          1           0        3.165338    0.850698    0.000625
      8          1           0       -0.437795   -1.606330    0.000114
      9          6           0       -1.464281    0.072094    0.000021
     10          8           0       -2.165135    1.056725    0.000075
     11          8           0       -1.695436   -1.178307    0.000274
 ---------------------------------------------------------------------

 SCF Done:  E(RM062X) =  -430.640023677     A.U. after    1 cycles

 The electronic state is 1-A.
 Alpha  occ. eigenvalues --  -19.67645 -19.66422 -14.89614 -14.89351 -14.84360
 Alpha  occ. eigenvalues --  -10.74690 -10.63026 -10.60582  -1.30029  -1.23521
 Alpha  occ. eigenvalues --   -1.16305  -1.06053  -0.95725  -0.79205  -0.76392
 Alpha  occ. eigenvalues --   -0.70766  -0.65493  -0.62003  -0.57270  -0.56295
 Alpha  occ. eigenvalues --   -0.54537  -0.54073  -0.53610  -0.43331  -0.40819
 Alpha  occ. eigenvalues --   -0.40078  -0.39882  -0.39517  -0.35675
 Alpha virt. eigenvalues --   -0.03108   0.01776   0.03701   0.04419   0.04491
 Alpha virt. eigenvalues --    0.04726   0.05772   0.06554   0.07925   0.08764
 Alpha virt. eigenvalues --    0.09393   0.10527   0.11919   0.12557   0.13659

 Mulliken charges:
               1
     1  N   -0.153722
     2  N   -0.060136
     3  C   -0.045293
     4  C   -0.204616
     5  N   -0.287550
     6  H    0.280484
     7  H    0.249872
     8  H    0.515845
     9  C    0.850183
    10  O   -0.575086
    11  O   -0.569981
 Sum of Mulliken charges =   0.00000

 Dipole moment (field-independent basis, Debye):
    X=              6.1912    Y=              2.2080    Z=             -0.0002  Tot=              6.5732
 Quadrupole moment (field-independent basis, Debye-Ang):
   XX=            -55.8482   YY=            -44.1217   ZZ=            -45.2120
   XY=              8.4705   XZ=              0.0030   YZ=              0.0006

  Exact polarizability: 103.006  -3.136  92.548   0.006   0.001  44.420
 Approx polarizability:  89.374  -4.319  90.405   0.008   0.003  42.657

 ******    1 imaginary frequencies (negative Signs) ******

                      1                      2                      3
                      A                      A                      A
 Frequencies --  -1436.2479               144.6501               153.2407
 Red. masses --      1.0829                 7.8418                 8.7320
 Frc consts  --      1.3161                 0.0967                 0.1208
 IR Inten    --   3041.3953                 0.0638                13.9688

                      4                      5                      6
                      A                      A                      A
 Frequencies --    299.9254               550.9558               629.1085
 Red. masses --      7.2733                10.6994                 9.5179
 Frc consts  --      0.3855                 1.9136                 2.2194
 IR Inten    --      3.2059                16.2119                77.8657

                      7                      8                      9
                      A                      A                      A
 Frequencies --    631.9302               690.5226               776.9047
 Red. masses --      3.6729                 9.0460                11.4523
 Frc consts  --      0.8642                 2.5413                 4.0727
 IR Inten    --      0.2771                 0.3335                54.7519

                     10                     11                     12
                      A                      A                      A
 Frequencies --    786.0643               834.7916               926.0745
 Red. masses --     13.6160                 1.2115                 1.3921
 Frc consts  --      4.9570                 0.4974                 0.7034
 IR Inten    --    447.4246                79.6359                 0.8845

                     13                     14                     15
                      A                      A                      A
 Frequencies --    986.1242              1061.3782              1114.8893
 Red. masses --      5.8102                 1.5716                 3.0942
 Frc consts  --      3.3289                 1.0431                 2.2660
 IR Inten    --     52.9980                97.7110               172.4842

                     16                     17                     18
                      A                      A                      A
 Frequencies --   1122.7613              1189.3530              1252.8551
 Red. masses --      1.0552                 1.8433                 8.2407
 Frc consts  --      0.7837                 1.5363                 7.6211
 IR Inten    --    173.7404                10.9448               814.0593

                     19                     20                     21
                      A                      A                      A
 Frequencies --   1305.1427              1357.2462              1451.8950
 Red. masses --      8.3124                 4.7480                 5.6533
 Frc consts  --      8.3424                 5.1533                 7.0214
 IR Inten    --    152.7556                71.5073               104.7990

                     22                     23                     24
                      A                      A                      A
 Frequencies --   1518.6705              1542.3347              1849.4807
 Red. masses --      6.8265                 5.1923                10.9712
 Frc consts  --      9.2763                 7.2772                22.1107
 IR Inten    --     56.9027                 8.9304              1260.4871

                     25                     26                     27
                      A                      A                      A
 Frequencies --   2126.1369              3329.5552              3343.6069
 Red. masses --      1.0658                 1.0972                 1.1092
 Frc consts  --      2.8386                 7.1667                 7.3060
 IR Inten    --    632.3540                34.1862                19.0480

 - Thermochemistry -
 -------------------
 Temperature   298.150 Kelvin.  Pressure   1.00000 Atm.
 Atom     1 has atomic number  7 and mass  14.00307

 Molecular mass:   113.02253 amu.
 Principal axes and moments of inertia in atomic units:
                           1         2         3
     Eigenvalues --   327.95459 996.203921324.15846
           X            0.99964   0.02697   0.00001
           Y           -0.02697   0.99964   0.00000
           Z           -0.00001  -0.00000   1.00000
 This molecule is an asymmetric top.
 Rotational symmetry number  1.
 Rotational temperatures (Kelvin)      0.26410     0.08694     0.06541
 Rotational constants (GHZ):           5.50302     1.81162     1.36293
    1 imaginary frequencies ignored.
 Zero-point vibrational energy     185275.2 (Joules/Mol)
                                   44.28184 (Kcal/Mol)
 Warning -- explicit consideration of   4 degrees of freedom as
           vibrations may cause significant error
 Vibrational temperatures:    208.12   220.48   431.53   792.70   905.15
          (Kelvin)            909.21   993.51  1117.79  1130.97  1201.08
                             1332.41  1418.81  1527.09  1604.08  1615.40
                             1711.21  1802.58  1877.81  1952.77  2088.95
                             2185.03  2219.08  2660.99  3059.04  4790.49
                             4810.70

 Zero-point correction=                           0.070568 (Hartree/Particle)
 Thermal correction to Energy=                    0.076171
 Thermal correction to Enthalpy=                  0.077115
 Thermal correction to Gibbs Free Energy=         0.040389
 Sum of electronic and zero-point Energies=           -430.569456
 Sum of electronic and thermal Energies=              -430.563853
 Sum of electronic and thermal Enthalpies=            -430.562908
 Sum of electronic and thermal Free Energies=         -430.599635

                     E (Thermal)             CV                S
                      KCal/Mol        Cal/Mol-Kelvin    Cal/Mol-Kelvin
 Total                   47.798             19.928             77.297
 Electronic               0.000              0.000              0.000
 Translational            0.889              2.981             40.083
 Rotational               0.889              2.981             27.561
 Vibrational             46.021             13.966              9.653
 Vibration     1          0.616              1.908              2.741
 Vibration     2          0.619              1.899              2.632
 Vibration     3          0.692              1.674              1.417
 Vibration     4          0.906              1.138              0.542

 Optimization completed.
    -- Stationary point found.
 Normal termination of Gaussian 16 at Thu Jul  6 20:48:49 2023.
