 Gaussian 16, Revision C.01,
 Gaussian 16:  ES64L-G16RevC.01  3-Jul-2019

 -----------------------------------------------------
 # opt freq 6-31+g(d,p) scrf=(smd,solvent=water) m062x
 -----------------------------------------------------

 -------------------
 Title Card Required
 -------------------
 Symbolic Z-matrix:
 Charge =  1 Multiplicity = 1

 SCF Done:  E(RM062X) =  -228.001232020     A.U. after   15 cycles
 SCF Done:  E(RM062X) =  -228.067836302     A.U. after   14 cycles
 SCF Done:  E(RM062X) =  -228.114874094     A.U. after   12 cycles
 SCF Done:  E(RM062X) =  -228.137488235     A.U. after   12 cycles
 SCF Done:  E(RM062X) =  -228.138394409     A.U. after   11 cycles
 SCF Done:  E(RM062X) =  -228.138502815     A.U. after   10 cycles
 SCF Done:  E(RM062X) =  -228.138568840     A.U. after   11 cycles
 SCF Done:  E(RM062X) =  -228.138647636     A.U. after   12 cycles
 SCF Done:  E(RM062X) =  -228.138741470     A.U. after   10 cycles
 SCF Done:  E(RM062X) =  -228.138550070     A.U. after   12 cycles
 SCF Done:  E(RM062X) =  -228.138810209     A.U. after   12 cycles
 SCF Done:  E(RM062X) =  -228.138840141     A.U. after   10 cycles
 SCF Done:  E(RM062X) =  -228.138861054     A.U. after    9 cycles
 SCF Done:  E(RM062X) =  -228.138895908     A.U. after   10 cycles
 SCF Done:  E(RM062X) =  -228.138921874     A.U. after   10 cycles
 SCF Done:  E(RM062X) =  -228.138935271     A.U. after    9 cycles
 SCF Done:  E(RM062X) =  -228.138944891     A.U. after    9 cycles
 SCF Done:  E(RM062X) =  -228.138950181     A.U. after    9 cycles
 SCF Done:  E(RM062X) =  -228.138951047     A.U. after    9 cycles
 Optimization completed.
    -- Stationary point found.

 1\1\GINC-NODE01\FOpt\RM062X\6-31+G(d,p)\C2H3O2(1+)\GAU\02-Dec-2023\0\\
 # opt freq 6-31+g(d,p) scrf=(smd,solvent=water) m062x\\Title Card Requ
 ired\\1,1\C,1.3264606651,2.1826359031,0.1575644795\C,2.2511465852,-0.0
 718283788,-0.0366449753\O,2.1377439858,1.0374892886,-0.4823491551\O,2.
 4062392594,-1.1382286807,0.3189770598\H,1.4909182225,2.9844976014,-0.5
 525763781\H,1.7865624143,2.3429876161,1.1273849587\H,0.3050993577,1.81
 70049302,0.1903639604\\Version=ES64L-G16RevC.01\State=1-A\HF=-228.1389
 51\RMSD=3.590e-09\RMSF=5.121e-05\Dipole=-0.5374938,1.1621888,0.1963451

 Normal termination of Gaussian 16 at Sat Dec  2 05:20:42 2023.

 ----------------------------------------------------------------------
 #N Geom=AllCheck Guess=TCheck SCRF=Check GenChk RM062X/6-31+G(d,p) Fre
 q
 ----------------------------------------------------------------------

 Structure from the checkpoint file:  "/home/gau/soft/scratch/Gau-152140.chk"
 -------------------
 Title Card Required
 -------------------
 Charge =  1 Multiplicity = 1

                         Standard orientation:
 ---------------------------------------------------------------------
 Center     Atomic      Atomic             Coordinates (Angstroms)
 Number     Number       Type             X           Y           Z
 ---------------------------------------------------------------------
      1          6           0       -1.681537   -0.295130   -0.000002
      2          6           0        0.730606    0.101019   -0.000035
      3          8           0       -0.386255    0.542291    0.000014
      4          8           0        1.813716   -0.237511    0.000011
      5          1           0       -2.438170    0.480650    0.001339
      6          1           0       -1.637357   -0.878105    0.914409
      7          1           0       -1.638579   -0.876116   -0.915726
 ---------------------------------------------------------------------

 SCF Done:  E(RM062X) =  -228.138951047     A.U. after    1 cycles

 The electronic state is 1-A.
 Alpha  occ. eigenvalues --  -19.82703 -19.80836 -10.83389 -10.65745  -1.37457
 Alpha  occ. eigenvalues --   -1.32920  -0.90885  -0.72371  -0.68141  -0.67699
 Alpha  occ. eigenvalues --   -0.66866  -0.56126  -0.55337  -0.50231  -0.48191
 Alpha virt. eigenvalues --   -0.03146  -0.00910   0.01442   0.04446   0.04845
 Alpha virt. eigenvalues --    0.05378   0.05928   0.08527   0.09235   0.11826
 Alpha virt. eigenvalues --    0.13657   0.19179   0.20880   0.21183   0.22135

 Mulliken charges:
               1
     1  C   -0.247423
     2  C    0.931621
     3  O   -0.278023
     4  O   -0.187404
     5  H    0.258788
     6  H    0.261201
     7  H    0.261240
 Sum of Mulliken charges =   1.00000

 Dipole moment (field-independent basis, Debye):
    X=             -3.1923    Y=             -0.8067    Z=             -0.0001  Tot=              3.2926
 Quadrupole moment (field-independent basis, Debye-Ang):
   XX=            -12.4625   YY=            -19.4233   ZZ=            -19.1552
   XY=              2.1759   XZ=             -0.0001   YZ=             -0.0000

  Exact polarizability:      47.731      -5.140      23.994       0.001       0.000      22.348
 Approx polarizability:      44.134      -6.642      22.467       0.001       0.000      19.536

                      1                      2                      3
                      A                      A                      A
 Frequencies --     73.9718               175.1023               578.7208
 Red. masses --      1.2751                 4.8705                 9.4964
 Frc consts  --      0.0041                 0.0880                 1.8739
 IR Inten    --      0.9448                14.4003               123.3392

                      4                      5                      6
                      A                      A                      A
 Frequencies --    606.3032               735.7681              1144.5503
 Red. masses --     12.7229                10.5510                 1.1806
 Frc consts  --      2.7556                 3.3653                 0.9112
 IR Inten    --     61.2591               146.4712                 0.7385

                      7                      8                      9
                      A                      A                      A
 Frequencies --   1161.0633              1320.4261              1447.1823
 Red. masses --      1.2135                 3.3618                 1.0647
 Frc consts  --      0.9639                 3.4535                 1.3138
 IR Inten    --      1.8238               229.3750                35.4009

                     10                     11                     12
                      A                      A                      A
 Frequencies --   1458.6827              1484.5475              2438.7436
 Red. masses --      1.0526                 1.4299                12.5381
 Frc consts  --      1.3196                 1.8567                43.9353
 IR Inten    --     28.2432                16.3680              1471.7572

                     13                     14                     15
                      A                      A                      A
 Frequencies --   3151.0745              3298.4331              3306.6329
 Red. masses --      1.0207                 1.1175                 1.1168
 Frc consts  --      5.9714                 7.1634                 7.1943
 IR Inten    --      0.7824                 8.3318                12.8435

 - Thermochemistry -
 -------------------
 Temperature   298.150 Kelvin.  Pressure   1.00000 Atm.
 Atom     1 has atomic number  6 and mass  12.00000

 Molecular mass:    59.01330 amu.
 Principal axes and moments of inertia in atomic units:
                           1         2         3
     Eigenvalues --    36.37021 385.37460 409.69029
           X            0.99983   0.01848   0.00000
           Y           -0.01848   0.99983  -0.00000
           Z           -0.00000   0.00000   1.00000
 This molecule is an asymmetric top.
 Rotational symmetry number  1.
 Rotational temperatures (Kelvin)      2.38145     0.22475     0.21141
 Rotational constants (GHZ):          49.62141     4.68308     4.40514
 Zero-point vibrational energy     133869.3 (Joules/Mol)
                                   31.99553 (Kcal/Mol)
 Warning -- explicit consideration of   4 degrees of freedom as
           vibrations may cause significant error
 Vibrational temperatures:    106.43   251.93   832.65   872.34  1058.61
          (Kelvin)           1646.75  1670.51  1899.80  2082.17  2098.72
                             2135.93  3508.81  4533.69  4745.71  4757.51

 Zero-point correction=                           0.050988 (Hartree/Particle)
 Thermal correction to Energy=                    0.055703
 Thermal correction to Enthalpy=                  0.056647
 Thermal correction to Gibbs Free Energy=         0.023769
 Sum of electronic and zero-point Energies=           -228.087963
 Sum of electronic and thermal Energies=              -228.083248
 Sum of electronic and thermal Enthalpies=            -228.082304
 Sum of electronic and thermal Free Energies=         -228.115182

                     E (Thermal)             CV                S
                      KCal/Mol        Cal/Mol-Kelvin    Cal/Mol-Kelvin
 Total                   34.954             13.531             69.198
 Electronic               0.000              0.000              0.000
 Translational            0.889              2.981             38.146
 Rotational               0.889              2.981             23.267
 Vibrational             33.177              7.569              7.785
 Vibration     1          0.599              1.966              4.045
 Vibration     2          0.627              1.873              2.380
 Vibration     3          0.935              1.077              0.488
 Vibration     4          0.965              1.018              0.439

                           ! Non-Optimized Parameters !

 1\1\GINC-NODE01\Freq\RM062X\6-31+G(d,p)\C2H3O2(1+)\GAU\02-Dec-2023\0\\
 #N Geom=AllCheck Guess=TCheck SCRF=Check GenChk RM062X/6-31+G(d,p) Fre
 q\\Title Card Required\\1,1\C,1.3264606651,2.1826359031,0.1575644795\C
 ,2.2511465852,-0.0718283788,-0.0366449753\O,2.1377439858,1.0374892886,
 -0.4823491551\O,2.4062392594,-1.1382286807,0.3189770598\H,1.4909182225
 ,2.9844976014,-0.5525763781\H,1.7865624143,2.3429876161,1.1273849587\H
 ,0.3050993577,1.8170049302,0.1903639604\\Version=ES64L-G16RevC.01\Stat
 e=1-A\HF=-228.138951\RMSD=4.306e-10\RMSF=5.121e-05\ZeroPoint=0.0509881

 Normal termination of Gaussian 16 at Sat Dec  2 05:20:50 2023.
