 Gaussian 16, Revision A.03,
 Gaussian 16:  ES64L-G16RevA.03 25-Dec-2016

 -----------------------------------------------------
 # opt freq 6-31+g(d,p) m062x scrf=(SMD,solvent=water)
 -----------------------------------------------------

 ----------
 "Sketch 2"
 ----------
 Symbolic Z-matrix:
 Charge = -1 Multiplicity = 2

 SCF Done:  E(UM062X) =  -188.598617927     A.U. after   13 cycles
 SCF Done:  E(UM062X) =  -188.598934861     A.U. after   12 cycles
 SCF Done:  E(UM062X) =  -188.598965661     A.U. after   11 cycles
 Optimization completed.
    -- Stationary point found.
 Normal termination of Gaussian 16 at Sat Jul  1 04:38:18 2023.

 ----------------------------------------------------------------------
 #N Geom=AllCheck Guess=TCheck SCRF=Check GenChk UM062X/6-31+G(d,p) Fre
 q
 ----------------------------------------------------------------------

 Structure from the checkpoint file:  "CO2-.chk"
 ----------
 "Sketch 2"
 ----------
 Charge = -1 Multiplicity = 2

                         Standard orientation:
 ---------------------------------------------------------------------
 Center     Atomic      Atomic             Coordinates (Angstroms)
 Number     Number       Type             X           Y           Z
 ---------------------------------------------------------------------
      1          6           0        0.000000    0.354383    0.000000
      2          8           0        1.140087   -0.132915    0.000000
      3          8           0       -1.140087   -0.132872    0.000000
 ---------------------------------------------------------------------

 SCF Done:  E(UM062X) =  -188.598965661     A.U. after    1 cycles

 The electronic state is 2-A'.
 Alpha  occ. eigenvalues --  -19.63176 -19.63174 -10.64541  -1.18380  -1.10364
 Alpha  occ. eigenvalues --   -0.60397  -0.52613  -0.51146  -0.49785  -0.36590
 Alpha  occ. eigenvalues --   -0.35815  -0.21999
 Alpha virt. eigenvalues --    0.06276   0.06714   0.07728   0.09468   0.10982
 Alpha virt. eigenvalues --    0.21239   0.21577   0.23505   0.26270   0.28129
 Alpha virt. eigenvalues --    0.28735   0.29231   0.33101   0.45719   0.57404

  Beta  occ. eigenvalues --  -19.62709 -19.62707 -10.63839  -1.16518  -1.08374
  Beta  occ. eigenvalues --   -0.58202  -0.50384  -0.48523  -0.46683  -0.35446
  Beta  occ. eigenvalues --   -0.33699
  Beta virt. eigenvalues --   -0.02091   0.05338   0.05681   0.06185   0.08363
  Beta virt. eigenvalues --    0.12353   0.19292   0.19582   0.21973   0.25261
  Beta virt. eigenvalues --    0.27262   0.27851   0.29412   0.32934   0.46166

 Mulliken charges and spin densities:
               1          2
     1  C    0.301514   0.750333
     2  O   -0.650770   0.124834
     3  O   -0.650744   0.124833
 Sum of Mulliken charges =  -1.00000   1.00000

 Dipole moment (field-independent basis, Debye):
    X=             -0.0002    Y=              0.4128    Z=              0.0000  Tot=              0.4128
 Quadrupole moment (field-independent basis, Debye-Ang):
   XX=            -27.6034   YY=            -19.9886   ZZ=            -18.2026
   XY=              0.0001   XZ=              0.0000   YZ=              0.0000

  Exact polarizability:  44.699  -0.000  31.310  -0.000  -0.000  22.399
 Approx polarizability:  37.553  -0.000  21.683  -0.000  -0.000  17.705

                      1                      2                      3
                     A'                     A'                     A'
 Frequencies --    720.4616              1352.8889              1638.6760
 Red. masses --     14.2137                14.3224                12.9976
 Frc consts  --      4.3469                15.4451                20.5636
 IR Inten    --     43.9454                60.8366              1748.7520

 - Thermochemistry -
 -------------------
 Temperature   298.150 Kelvin.  Pressure   1.00000 Atm.
 Atom     1 has atomic number  6 and mass  12.00000

 Molecular mass:    43.98983 amu.
 Principal axes and moments of inertia in atomic units:
                           1         2         3
     Eigenvalues --     7.39927 148.48612 155.88540
           X            1.00000   0.00002   0.00000
           Y           -0.00002   1.00000   0.00000
           Z           -0.00000   0.00000   1.00000
 This molecule is an asymmetric top.
 Rotational symmetry number  1.
 Rotational temperatures (Kelvin)     11.70573     0.58331     0.55563
 Rotational constants (GHZ):         243.90788    12.15428    11.57736
 Zero-point vibrational energy      22202.8 (Joules/Mol)
                                    5.30661 (Kcal/Mol)
 Vibrational temperatures:   1036.58  1946.51  2357.69
          (Kelvin)

 Zero-point correction=                           0.008457 (Hartree/Particle)
 Thermal correction to Energy=                    0.011406
 Thermal correction to Enthalpy=                  0.012350
 Thermal correction to Gibbs Free Energy=        -0.015557
 Sum of electronic and zero-point Energies=           -188.590509
 Sum of electronic and thermal Energies=              -188.587560
 Sum of electronic and thermal Enthalpies=            -188.586616
 Sum of electronic and thermal Free Energies=         -188.614523

                     E (Thermal)             CV                S
                      KCal/Mol        Cal/Mol-Kelvin    Cal/Mol-Kelvin
 Total                    7.157              6.922             58.735
 Electronic               0.000              0.000              1.377
 Translational            0.889              2.981             37.270
 Rotational               0.889              2.981             19.777
 Vibrational              5.380              0.960              0.311

 Optimization completed.
    -- Stationary point found.
 Normal termination of Gaussian 16 at Sat Jul  1 04:38:28 2023.
