 Gaussian 16, Revision A.03,
 Gaussian 16:  ES64L-G16RevA.03 25-Dec-2016

 -----------------------------------------------------
 # m062x/6-31+G(d,p) opt freq scrf=(SMD,solvent=water)
 -----------------------------------------------------

 ---------
 structure
 ---------
 Symbolic Z-matrix:
 Charge =  0 Multiplicity = 1

 SCF Done:  E(RM062X) =  -188.266618373     A.U. after   10 cycles
 SCF Done:  E(RM062X) =  -188.372622865     A.U. after   10 cycles
 SCF Done:  E(RM062X) =  -188.504407166     A.U. after   10 cycles
 SCF Done:  E(RM062X) =  -188.512517017     A.U. after    8 cycles
 SCF Done:  E(RM062X) =  -188.512540985     A.U. after    7 cycles
 Optimization completed.
    -- Stationary point found.

 1\1\GINC-NODE2\FOpt\RM062X\6-31+G(d,p)\C1O2\GONGKE2021\01-Jul-2023\0\\
 # m062x/6-31+G(d,p) opt freq scrf=(SMD,solvent=water)\\structure\\0,1\
 C,-2.6205490084,1.1762797995,-0.2612299779\O,-1.523189129,0.9277283588
 ,0.0331307664\O,-3.7179093733,1.4248313501,-0.5555908524\\Version=ES64
 L-G16RevA.03\State=1-SG\HF=-188.512541\RMSD=4.603e-09\RMSF=5.138e-06\D
 ipole=0.0000012,-0.0000003,0.0000003\Quadrupole=-2.2632629,1.1689914,1
 .0942715,0.8194429,-0.9704704,0.219811\PG=C*V [C*(O1C1O1)]\\@

 Normal termination of Gaussian 16 at Sat Jul  1 02:37:07 2023.

 ----------------------------------------------------------------------
 #N Geom=AllCheck Guess=TCheck SCRF=Check GenChk RM062X/6-31+G(d,p) Fre
 q
 ----------------------------------------------------------------------

 Structure from the checkpoint file:  "/scratch/gongke2021/co2-opt/Gau-24307.chk"
 ---------
 structure
 ---------
 Charge =  0 Multiplicity = 1

                         Standard orientation:
 ---------------------------------------------------------------------
 Center     Atomic      Atomic             Coordinates (Angstroms)
 Number     Number       Type             X           Y           Z
 ---------------------------------------------------------------------
      1          6           0       -0.000000   -0.000000    0.000000
      2          8           0       -0.000000   -0.000000    1.163024
      3          8           0        0.000000    0.000000   -1.163024
 ---------------------------------------------------------------------

 SCF Done:  E(RM062X) =  -188.512540985     A.U. after    1 cycles

 The electronic state is 1-SG.
 Alpha  occ. eigenvalues --  -19.73226 -19.73225 -10.75473  -1.29355  -1.24391
 Alpha  occ. eigenvalues --   -0.66189  -0.61037  -0.60212  -0.60212  -0.44583
 Alpha  occ. eigenvalues --   -0.44583
 Alpha virt. eigenvalues --    0.00854   0.05399   0.05817   0.05817   0.08562
 Alpha virt. eigenvalues --    0.08562   0.17144   0.19621   0.21049   0.21049
 Alpha virt. eigenvalues --    0.25176   0.28725   0.28725   0.32065   0.39068

 Mulliken charges:
               1
     1  C    0.815340
     2  O   -0.407669
     3  O   -0.407671
 Sum of Mulliken charges =  -0.00000

 Dipole moment (field-independent basis, Debye):
    X=              0.0000    Y=              0.0000    Z=              0.0000  Tot=              0.0000
 Quadrupole moment (field-independent basis, Debye-Ang):
   XX=            -14.8234   YY=            -14.8234   ZZ=            -20.2893
   XY=             -0.0000   XZ=              0.0000   YZ=              0.0000

  Exact polarizability:  10.425  -0.000  10.425  -0.000   0.000  34.637
 Approx polarizability:   9.626   0.000   9.626  -0.000  -0.000  36.284

                      1                      2                      3
                     PI                     PI                     SG
 Frequencies --    662.2316               662.2316              1406.6698
 Red. masses --     12.8774                12.8774                15.9949
 Frc consts  --      3.3273                 3.3273                18.6473
 IR Inten    --     56.2540                56.2540                 0.0000

                      4
                     SG
 Frequencies --   2379.0007
 Red. masses --     12.8774
 Frc consts  --     42.9404
 IR Inten    --   1567.3934

 - Thermochemistry -
 -------------------
 Temperature   298.150 Kelvin.  Pressure   1.00000 Atm.
 Atom     1 has atomic number  6 and mass  12.00000

 Molecular mass:    43.98983 amu.
 Principal axes and moments of inertia in atomic units:
                           1         2         3
     Eigenvalues --     0.00000 154.52088 154.52088
           X           -0.00000   0.84800  -0.53000
           Y           -0.00000   0.53000   0.84800
           Z            1.00000   0.00000  -0.00000
 This molecule is a prolate symmetric top.
 Rotational symmetry number  1.
 Rotational temperature (Kelvin)      0.56053
 Rotational constant (GHZ):          11.679594
 Zero-point vibrational energy      30565.4 (Joules/Mol)
                                    7.30530 (Kcal/Mol)
 Vibrational temperatures:    952.80   952.80  2023.88  3422.85
          (Kelvin)

 Zero-point correction=                           0.011642 (Hartree/Particle)
 Thermal correction to Energy=                    0.014267
 Thermal correction to Enthalpy=                  0.015211
 Thermal correction to Gibbs Free Energy=        -0.009712
 Sum of electronic and zero-point Energies=           -188.500899
 Sum of electronic and thermal Energies=              -188.498274
 Sum of electronic and thermal Enthalpies=            -188.497330
 Sum of electronic and thermal Free Energies=         -188.522253

                     E (Thermal)             CV                S
                      KCal/Mol        Cal/Mol-Kelvin    Cal/Mol-Kelvin
 Total                    8.953              6.881             52.456
 Electronic               0.000              0.000              0.000
 Translational            0.889              2.981             37.270
 Rotational               0.592              1.987             14.460
 Vibrational              7.472              1.913              0.726

 Optimization completed.
    -- Stationary point found.

 1\1\GINC-NODE2\Freq\RM062X\6-31+G(d,p)\C1O2\GONGKE2021\01-Jul-2023\0\\
 #N Geom=AllCheck Guess=TCheck SCRF=Check GenChk RM062X/6-31+G(d,p) Fre
 q\\structure\\0,1\C,-2.6205490084,1.1762797995,-0.2612299779\O,-1.5231
 89129,0.9277283588,0.0331307664\O,-3.7179093733,1.4248313501,-0.555590
 8524\\Version=ES64L-G16RevA.03\State=1-SG\HF=-188.512541\RMSD=5.193e-0
 9\RMSF=5.125e-06\ZeroPoint=0.0116417\Thermal=0.0142671\Dipole=0.000002
 5,-0.0000006,0.0000007\DipoleDeriv=3.4125509,-0.612214,0.7250482,-0.61
 2214,0.8482793,-0.164223,0.7250482,-0.164223,0.9041033,-1.7062753,0.30

 Normal termination of Gaussian 16 at Sat Jul  1 02:37:16 2023.
