 Gaussian 16, Revision A.03,
 Gaussian 16:  ES64L-G16RevA.03 25-Dec-2016

 -----------------------------------------------------
 # opt freq 6-31+g(d,p) m062x scrf=(SMD,solvent=water)
 -----------------------------------------------------

 ----------
 "Sketch 2"
 ----------
 Symbolic Z-matrix:
 Charge =  0 Multiplicity = 2

 SCF Done:  E(UM062X) =  -189.030617668     A.U. after   14 cycles
 SCF Done:  E(UM062X) =  -189.034806809     A.U. after   13 cycles
 SCF Done:  E(UM062X) =  -189.035020184     A.U. after   12 cycles
 SCF Done:  E(UM062X) =  -189.035056044     A.U. after   12 cycles
 SCF Done:  E(UM062X) =  -189.035059310     A.U. after   11 cycles
 Optimization completed.
    -- Stationary point found.
 Normal termination of Gaussian 16 at Sun Nov  5 19:36:43 2023.

 ----------------------------------------------------------------------
 #N Geom=AllCheck Guess=TCheck SCRF=Check GenChk UM062X/6-31+G(d,p) Fre
 q
 ----------------------------------------------------------------------

 Structure from the checkpoint file:  "/scratch/gongke2021/1-H-Tz-HCOO-/Gau-17747.chk"
 ----------
 "Sketch 2"
 ----------
 Charge =  0 Multiplicity = 2

                         Standard orientation:
 ---------------------------------------------------------------------
 Center     Atomic      Atomic             Coordinates (Angstroms)
 Number     Number       Type             X           Y           Z
 ---------------------------------------------------------------------
      1          1           0        1.775251    0.445578   -0.000002
      2          6           0       -0.118609    0.386515    0.000000
      3          8           0        1.056447   -0.211737    0.000000
      4          8           0       -1.189396   -0.133846   -0.000000
 ---------------------------------------------------------------------

 SCF Done:  E(UM062X) =  -189.035059310     A.U. after    1 cycles

 The electronic state is 2-A.
 Alpha  occ. eigenvalues --  -19.72881 -19.69721 -10.70977  -1.27135  -1.19684
 Alpha  occ. eigenvalues --   -0.74021  -0.62091  -0.58622  -0.55980  -0.48826
 Alpha  occ. eigenvalues --   -0.43456  -0.30256
 Alpha virt. eigenvalues --    0.03398   0.03679   0.04977   0.07055   0.07485
 Alpha virt. eigenvalues --    0.17433   0.19131   0.21475   0.22723   0.25609
 Alpha virt. eigenvalues --    0.25935   0.27140   0.31198   0.33138   0.38045

  Beta  occ. eigenvalues --  -19.72545 -19.69157 -10.70081  -1.25404  -1.17890
  Beta  occ. eigenvalues --   -0.72525  -0.58451  -0.55663  -0.54787  -0.44499
  Beta  occ. eigenvalues --   -0.43102
  Beta virt. eigenvalues --   -0.06400   0.04591   0.04610   0.05201   0.06686
  Beta virt. eigenvalues --    0.08283   0.17043   0.17956   0.20846   0.22609
  Beta virt. eigenvalues --    0.24768   0.25839   0.27159   0.31075   0.33498

 Mulliken charges and spin densities:
               1          2
     1  H    0.466232  -0.003879
     2  C    0.430232   0.749458
     3  O   -0.464531   0.051569
     4  O   -0.431933   0.202851
 Sum of Mulliken charges =  -0.00000   1.00000

 Dipole moment (field-independent basis, Debye):
    X=              4.0368    Y=              1.9328    Z=             -0.0000  Tot=              4.4757
 Quadrupole moment (field-independent basis, Debye-Ang):
   XX=            -14.9570   YY=            -17.1551   ZZ=            -16.5175
   XY=              2.3894   XZ=             -0.0000   YZ=             -0.0000

  Exact polarizability:  35.526   3.728  23.274   0.000   0.000  16.441
 Approx polarizability:  31.550   3.289  18.421   0.000   0.000  14.175

                      1                      2                      3
                      A                      A                      A
 Frequencies --    481.4951               626.6285              1149.9718
 Red. masses --      1.2078                 6.5061                 4.5026
 Frc consts  --      0.1650                 1.5052                 3.5082
 IR Inten    --    163.8984                 6.3511               109.5039

                      4                      5                      6
                      A                      A                      A
 Frequencies --   1219.2380              1882.8280              3754.8338
 Red. masses --      1.4655                10.5413                 1.0674
 Frc consts  --      1.2835                22.0173                 8.8666
 IR Inten    --    548.0370               602.1920               426.9753

 - Thermochemistry -
 -------------------
 Temperature   298.150 Kelvin.  Pressure   1.00000 Atm.
 Atom     1 has atomic number  1 and mass   1.00783

 Molecular mass:    44.99765 amu.
 Principal axes and moments of inertia in atomic units:
                           1         2         3
     Eigenvalues --    10.62888 156.30869 166.93756
           X            0.99981   0.01966  -0.00000
           Y           -0.01966   0.99981  -0.00000
           Z            0.00000   0.00000   1.00000
 This molecule is an asymmetric top.
 Rotational symmetry number  1.
 Rotational temperatures (Kelvin)      8.14893     0.55412     0.51884
 Rotational constants (GHZ):         169.79605    11.54601    10.81088
 Zero-point vibrational energy      54519.8 (Joules/Mol)
                                   13.03054 (Kcal/Mol)
 Warning -- explicit consideration of   1 degrees of freedom as
           vibrations may cause significant error
 Vibrational temperatures:    692.76   901.58  1654.55  1754.21  2708.97
          (Kelvin)           5402.37

 Zero-point correction=                           0.020765 (Hartree/Particle)
 Thermal correction to Energy=                    0.024019
 Thermal correction to Enthalpy=                  0.024963
 Thermal correction to Gibbs Free Energy=        -0.003627
 Sum of electronic and zero-point Energies=           -189.014294
 Sum of electronic and thermal Energies=              -189.011040
 Sum of electronic and thermal Enthalpies=            -189.010096
 Sum of electronic and thermal Free Energies=         -189.038687

                     E (Thermal)             CV                S
                      KCal/Mol        Cal/Mol-Kelvin    Cal/Mol-Kelvin
 Total                   15.072              8.680             60.174
 Electronic               0.000              0.000              1.377
 Translational            0.889              2.981             37.338
 Rotational               0.889              2.981             20.256
 Vibrational             13.295              2.718              1.203
 Vibration     1          0.838              1.291              0.706

 Optimization completed.
    -- Stationary point found.
 Normal termination of Gaussian 16 at Sun Nov  5 19:37:15 2023.
