 Gaussian 16, Revision A.03,
 Gaussian 16:  ES64L-G16RevA.03 25-Dec-2016

 -----------------------------------------------------
 # opt freq 6-31+g(d,p) m062x scrf=(SMD,solvent=water)
 -----------------------------------------------------

 ----------
 "Sketch 2"
 ----------
 Symbolic Z-matrix:
 Charge =  1 Multiplicity = 1

 SCF Done:  E(RM062X) =  -188.761560184     A.U. after   12 cycles
 SCF Done:  E(RM062X) =  -188.811362935     A.U. after   12 cycles
 SCF Done:  E(RM062X) =  -188.846202540     A.U. after   12 cycles
 SCF Done:  E(RM062X) =  -188.856951879     A.U. after   11 cycles
 SCF Done:  E(RM062X) =  -188.857126098     A.U. after   10 cycles
 SCF Done:  E(RM062X) =  -188.857130586     A.U. after    9 cycles
 Optimization completed.
    -- Stationary point found.
 Normal termination of Gaussian 16 at Sat Oct 14 02:39:27 2023.

 ----------------------------------------------------------------------
 #N Geom=AllCheck Guess=TCheck SCRF=Check GenChk RM062X/6-31+G(d,p) Fre
 q
 ----------------------------------------------------------------------

 Structure from the checkpoint file:  "/scratch/gongke2021/1-H-Tz-HCOO-/Gau-10817.chk"
 ----------
 "Sketch 2"
 ----------
 Charge =  1 Multiplicity = 1

                         Standard orientation:
 ---------------------------------------------------------------------
 Center     Atomic      Atomic             Coordinates (Angstroms)
 Number     Number       Type             X           Y           Z
 ---------------------------------------------------------------------
      1          1           0        1.669695    0.706888   -0.000000
      2          6           0       -0.104358    0.007256    0.000000
      3          8           0        1.102177   -0.112469   -0.000000
      4          8           0       -1.232621    0.018666   -0.000000
 ---------------------------------------------------------------------

 SCF Done:  E(RM062X) =  -188.857130586     A.U. after    1 cycles

 The electronic state is 1-A.
 Alpha  occ. eigenvalues --  -19.83961 -19.82458 -10.85210  -1.39064  -1.34671
 Alpha  occ. eigenvalues --   -0.85345  -0.70631  -0.68477  -0.68013  -0.56657
 Alpha  occ. eigenvalues --   -0.53591
 Alpha virt. eigenvalues --   -0.02683  -0.01470   0.00634   0.04445   0.05586
 Alpha virt. eigenvalues --    0.05838   0.12996   0.15723   0.18458   0.19812
 Alpha virt. eigenvalues --    0.24174   0.25395   0.27403   0.28482   0.32008

 Mulliken charges:
               1
     1  H    0.557122
     2  C    0.924476
     3  O   -0.340472
     4  O   -0.141126
 Sum of Mulliken charges =   1.00000

 Dipole moment (field-independent basis, Debye):
    X=              3.6550    Y=              2.0788    Z=              0.0000  Tot=              4.2048
 Quadrupole moment (field-independent basis, Debye-Ang):
   XX=             -8.7899   YY=            -12.1862   ZZ=            -13.9174
   XY=              3.6861   XZ=             -0.0000   YZ=             -0.0000

  Exact polarizability:  30.604   0.030  10.219   0.000   0.000   9.265
 Approx polarizability:  32.840  -0.486   9.934   0.000   0.000   8.832

                      1                      2                      3
                      A                      A                      A
 Frequencies --    487.2811               607.7299               944.3324
 Red. masses --      2.6839                 9.3056                 1.6822
 Frc consts  --      0.3755                 2.0250                 0.8838
 IR Inten    --    107.2332                24.2080               382.8256

                      4                      5                      6
                      A                      A                      A
 Frequencies --   1317.5810              2483.0348              3472.8726
 Red. masses --      9.4654                12.0145                 1.0673
 Frc consts  --      9.6815                43.6437                 7.5843
 IR Inten    --     20.3821               998.4659              1000.4663

 - Thermochemistry -
 -------------------
 Temperature   298.150 Kelvin.  Pressure   1.00000 Atm.
 Atom     1 has atomic number  1 and mass   1.00783

 Molecular mass:    44.99765 amu.
 Principal axes and moments of inertia in atomic units:
                           1         2         3
     Eigenvalues --     2.39287 166.56539 168.95825
           X            0.99966   0.02603  -0.00000
           Y           -0.02603   0.99966  -0.00000
           Z            0.00000   0.00000   1.00000
 This molecule is an asymmetric top.
 Rotational symmetry number  1.
 Rotational temperatures (Kelvin)     36.19674     0.52000     0.51264
 Rotational constants (GHZ):         754.21759    10.83503    10.68158
 Zero-point vibrational energy      55703.1 (Joules/Mol)
                                   13.31336 (Kcal/Mol)
 Warning -- explicit consideration of   2 degrees of freedom as
           vibrations may cause significant error
 Vibrational temperatures:    701.09   874.39  1358.68  1895.71  3572.53
          (Kelvin)           4996.69

 Zero-point correction=                           0.021216 (Hartree/Particle)
 Thermal correction to Energy=                    0.024494
 Thermal correction to Enthalpy=                  0.025438
 Thermal correction to Gibbs Free Energy=        -0.001861
 Sum of electronic and zero-point Energies=           -188.835914
 Sum of electronic and thermal Energies=              -188.832636
 Sum of electronic and thermal Enthalpies=            -188.831692
 Sum of electronic and thermal Free Energies=         -188.858992

                     E (Thermal)             CV                S
                      KCal/Mol        Cal/Mol-Kelvin    Cal/Mol-Kelvin
 Total                   15.370              8.839             57.457
 Electronic               0.000              0.000              0.000
 Translational            0.889              2.981             37.338
 Rotational               0.889              2.981             18.849
 Vibrational             13.593              2.877              1.270
 Vibration     1          0.843              1.278              0.691
 Vibration     2          0.967              1.015              0.437

                           ! Non-Optimized Parameters !
 Normal termination of Gaussian 16 at Sat Oct 14 02:39:37 2023.
