 Gaussian 16, Revision A.03,
 Gaussian 16:  ES64L-G16RevA.03 25-Dec-2016

 -----------------------------------------------------
 # opt freq 6-31+g(d,p) m062x scrf=(SMD,solvent=water)
 -----------------------------------------------------

 ----------
 "Sketch 2"
 ----------
 Symbolic Z-matrix:
 Charge = -1 Multiplicity = 1

 SCF Done:  E(RM062X) =  -189.177058104     A.U. after   12 cycles
 SCF Done:  E(RM062X) =  -189.184644549     A.U. after   12 cycles
 SCF Done:  E(RM062X) =  -189.187920064     A.U. after   11 cycles
 SCF Done:  E(RM062X) =  -189.187955517     A.U. after    9 cycles
 SCF Done:  E(RM062X) =  -189.187918383     A.U. after   11 cycles
 SCF Done:  E(RM062X) =  -189.187966435     A.U. after   10 cycles
 SCF Done:  E(RM062X) =  -189.187965887     A.U. after    9 cycles
 SCF Done:  E(RM062X) =  -189.187966979     A.U. after   10 cycles
 Optimization completed.
    -- Stationary point found.
 Normal termination of Gaussian 16 at Sun Jul 23 01:16:20 2023.

 ----------------------------------------------------------------------
 #N Geom=AllCheck Guess=TCheck SCRF=Check GenChk RM062X/6-31+G(d,p) Fre
 q
 ----------------------------------------------------------------------

 Structure from the checkpoint file:  "/scratch/gongke2021/1-H-Tz-HCOO-/Gau-32669.chk"
 ----------
 "Sketch 2"
 ----------
 Charge = -1 Multiplicity = 1

                         Standard orientation:
 ---------------------------------------------------------------------
 Center     Atomic      Atomic             Coordinates (Angstroms)
 Number     Number       Type             X           Y           Z
 ---------------------------------------------------------------------
      1          1           0        1.776633    0.372728    0.001119
      2          6           0       -0.150253    0.538958   -0.000155
      3          8           0        1.034027   -0.246851   -0.000134
      4          8           0       -1.143416   -0.203959    0.000111
 ---------------------------------------------------------------------

 SCF Done:  E(RM062X) =  -189.187966979     A.U. after    1 cycles

 The electronic state is 1-A.
 Alpha  occ. eigenvalues --  -19.64496 -19.60860 -10.60387  -1.16770  -1.08405
 Alpha  occ. eigenvalues --   -0.64302  -0.53259  -0.48912  -0.46646  -0.39043
 Alpha  occ. eigenvalues --   -0.36204  -0.23887
 Alpha virt. eigenvalues --    0.05559   0.05914   0.06121   0.08361   0.11056
 Alpha virt. eigenvalues --    0.18535   0.19793   0.22672   0.22913   0.25939
 Alpha virt. eigenvalues --    0.26670   0.28986   0.30535   0.34891   0.38699

 Mulliken charges:
               1
     1  H    0.416689
     2  C   -0.063185
     3  O   -0.620872
     4  O   -0.732632
 Sum of Mulliken charges =  -1.00000

 Dipole moment (field-independent basis, Debye):
    X=              3.9767    Y=              0.2218    Z=              0.0028  Tot=              3.9829
 Quadrupole moment (field-independent basis, Debye-Ang):
   XX=            -21.6880   YY=            -24.9067   ZZ=            -20.1571
   XY=              1.8921   XZ=              0.0058   YZ=              0.0023

  Exact polarizability:  48.204   3.185  39.985   0.001  -0.002  31.664
 Approx polarizability:  38.384   2.824  28.745   0.000  -0.000  24.715

                      1                      2                      3
                      A                      A                      A
 Frequencies --    555.8746               651.3005               840.3649
 Red. masses --      1.1524                 7.7827                 7.4194
 Frc consts  --      0.2098                 1.9451                 3.0871
 IR Inten    --    185.1693                87.0830               526.1713

                      4                      5                      6
                      A                      A                      A
 Frequencies --   1163.0639              1584.6472              3854.2738
 Red. masses --      1.2770                 9.3968                 1.0668
 Frc consts  --      1.0178                13.9026                 9.3375
 IR Inten    --    433.5094               552.1901               152.7374

 - Thermochemistry -
 -------------------
 Temperature   298.150 Kelvin.  Pressure   1.00000 Atm.
 Atom     1 has atomic number  1 and mass   1.00783

 Molecular mass:    44.99765 amu.
 Principal axes and moments of inertia in atomic units:
                           1         2         3
     Eigenvalues --    18.74914 147.87497 166.62410
           X            0.99983   0.01857   0.00005
           Y           -0.01857   0.99983   0.00009
           Z           -0.00005  -0.00009   1.00000
 This molecule is an asymmetric top.
 Rotational symmetry number  1.
 Rotational temperatures (Kelvin)      4.61962     0.58572     0.51982
 Rotational constants (GHZ):          96.25728    12.20451    10.83121
 Zero-point vibrational energy      51735.6 (Joules/Mol)
                                   12.36512 (Kcal/Mol)
 Warning -- explicit consideration of   1 degrees of freedom as
           vibrations may cause significant error
 Vibrational temperatures:    799.78   937.08  1209.10  1673.39  2279.95
          (Kelvin)           5545.44

 Zero-point correction=                           0.019705 (Hartree/Particle)
 Thermal correction to Energy=                    0.022948
 Thermal correction to Enthalpy=                  0.023892
 Thermal correction to Gibbs Free Energy=        -0.004252
 Sum of electronic and zero-point Energies=           -189.168262
 Sum of electronic and thermal Energies=              -189.165019
 Sum of electronic and thermal Enthalpies=            -189.164075
 Sum of electronic and thermal Free Energies=         -189.192219

                     E (Thermal)             CV                S
                      KCal/Mol        Cal/Mol-Kelvin    Cal/Mol-Kelvin
 Total                   14.400              8.886             59.235
 Electronic               0.000              0.000              0.000
 Translational            0.889              2.981             37.338
 Rotational               0.889              2.981             20.763
 Vibrational             12.623              2.924              1.135
 Vibration     1          0.911              1.127              0.532

 Optimization completed.
    -- Stationary point found.
 Normal termination of Gaussian 16 at Sun Jul 23 01:16:30 2023.
