 Gaussian 16, Revision A.03,
 Gaussian 16:  ES64L-G16RevA.03 25-Dec-2016

 -----------------------------------------------------
 # opt freq 6-31+g(d,p) m062x scrf=(SMD,solvent=water)
 -----------------------------------------------------

 -------------------
 Title Card Required
 -------------------
 Symbolic Z-matrix:
 Charge =  0 Multiplicity = 2

 SCF Done:  E(UM062X) =  -431.133467435     A.U. after   24 cycles
 SCF Done:  E(UM062X) =  -431.167610509     A.U. after   18 cycles
 SCF Done:  E(UM062X) =  -431.204629466     A.U. after   17 cycles
 SCF Done:  E(UM062X) =  -431.212120224     A.U. after   15 cycles
 SCF Done:  E(UM062X) =  -431.215692984     A.U. after   15 cycles
 SCF Done:  E(UM062X) =  -431.216571188     A.U. after   14 cycles
 SCF Done:  E(UM062X) =  -431.216314392     A.U. after   15 cycles
 SCF Done:  E(UM062X) =  -431.217314694     A.U. after   15 cycles
 SCF Done:  E(UM062X) =  -431.217668157     A.U. after   14 cycles
 SCF Done:  E(UM062X) =  -431.218121833     A.U. after   15 cycles
 SCF Done:  E(UM062X) =  -431.218838180     A.U. after   13 cycles
 SCF Done:  E(UM062X) =  -431.218989383     A.U. after   14 cycles
 SCF Done:  E(UM062X) =  -431.219189790     A.U. after   15 cycles
 SCF Done:  E(UM062X) =  -431.219409382     A.U. after   14 cycles
 SCF Done:  E(UM062X) =  -431.219995063     A.U. after   15 cycles
 SCF Done:  E(UM062X) =  -431.220252802     A.U. after   14 cycles
 SCF Done:  E(UM062X) =  -431.220366509     A.U. after   14 cycles
 SCF Done:  E(UM062X) =  -431.220397500     A.U. after   12 cycles
 SCF Done:  E(UM062X) =  -431.220403561     A.U. after   12 cycles
 Optimization completed.
    -- Stationary point found.
 Normal termination of Gaussian 16 at Mon Nov 13 02:47:21 2023.

 ----------------------------------------------------------------------
 #N Geom=AllCheck Guess=TCheck SCRF=Check GenChk UM062X/6-31+G(d,p) Fre
 q
 ----------------------------------------------------------------------

 Structure from the checkpoint file:  "/scratch/gongke2021/1-H-Tz-RC/Gau-1066.chk"
 -------------------
 Title Card Required
 -------------------
 Charge =  0 Multiplicity = 2

                         Standard orientation:
 ---------------------------------------------------------------------
 Center     Atomic      Atomic             Coordinates (Angstroms)
 Number     Number       Type             X           Y           Z
 ---------------------------------------------------------------------
      1          7           0       -0.006744    0.005683    0.072973
      2          7           0        0.816728    1.115847   -0.052582
      3          6           0        2.099804    0.593213   -0.021911
      4          6           0        1.983027   -0.773213   -0.024417
      5          7           0        0.690352   -1.168887    0.017459
      6          1           0        2.962501    1.239812   -0.032734
      7          1           0        2.774188   -1.507185   -0.059944
      8          1           0        0.543982    1.920147    0.512797
      9          6           0       -1.366476    0.104216   -0.007239
     10          8           0       -2.017001   -1.062821    0.002877
     11          8           0       -1.943659    1.181375   -0.049721
     12          1           0       -1.395876   -1.815007    0.011087
 ---------------------------------------------------------------------

 SCF Done:  E(UM062X) =  -431.220403561     A.U. after    1 cycles

 The electronic state is 2-A.
 Alpha  occ. eigenvalues --  -19.70615 -19.65053 -14.89121 -14.85254 -14.81254
 Alpha  occ. eigenvalues --  -10.73528 -10.60034 -10.59265  -1.27399  -1.21454
 Alpha  occ. eigenvalues --   -1.16224  -1.03139  -0.97363  -0.79776  -0.72844
 Alpha  occ. eigenvalues --   -0.72245  -0.70305  -0.61683  -0.58561  -0.56312
 Alpha  occ. eigenvalues --   -0.54089  -0.52084  -0.51151  -0.49783  -0.42409
 Alpha  occ. eigenvalues --   -0.41713  -0.40885  -0.39561  -0.36948  -0.21184
 Alpha virt. eigenvalues --    0.01455   0.03437   0.03953   0.04592   0.04932
 Alpha virt. eigenvalues --    0.06013   0.06193   0.07385   0.08650   0.09118
 Alpha virt. eigenvalues --    0.10370   0.11084   0.11512   0.14408   0.15372

  Beta  occ. eigenvalues --  -19.70587 -19.64909 -14.88946 -14.84881 -14.80662
  Beta  occ. eigenvalues --  -10.73489 -10.59813 -10.59350  -1.26911  -1.20754
  Beta  occ. eigenvalues --   -1.15873  -1.01677  -0.96455  -0.78739  -0.72308
  Beta  occ. eigenvalues --   -0.71616  -0.69835  -0.60069  -0.57758  -0.55906
  Beta  occ. eigenvalues --   -0.53352  -0.51414  -0.50181  -0.49475  -0.40988
  Beta  occ. eigenvalues --   -0.39836  -0.39352  -0.36732  -0.34330
  Beta virt. eigenvalues --   -0.04478   0.01388   0.03504   0.03935   0.04671
  Beta virt. eigenvalues --    0.06056   0.06190   0.06485   0.08378   0.08633
  Beta virt. eigenvalues --    0.09583   0.10564   0.10901   0.11773   0.14242

 Mulliken charges and spin densities:
               1          2
     1  N   -0.048202   0.041164
     2  N   -0.326781   0.166412
     3  C   -0.144762   0.332826
     4  C   -0.155664  -0.119227
     5  N   -0.296624   0.440310
     6  H    0.251037  -0.012844
     7  H    0.234656   0.002349
     8  H    0.411712   0.009844
     9  C    0.767977   0.061599
    10  O   -0.520065   0.010822
    11  O   -0.624459   0.068053
    12  H    0.451175  -0.001310
 Sum of Mulliken charges =  -0.00000   1.00000

 Dipole moment (field-independent basis, Debye):
    X=              7.1346    Y=             -0.3819    Z=              1.2146  Tot=              7.2473
 Quadrupole moment (field-independent basis, Debye-Ang):
   XX=            -48.0423   YY=            -42.2071   ZZ=            -47.2213
   XY=              7.9009   XZ=              0.0351   YZ=              2.7056

  Exact polarizability: 128.586  -4.776 101.421   0.390  -0.583  50.442
 Approx polarizability:  95.947  -2.801  91.528   0.265  -0.801  46.681

                      1                      2                      3
                      A                      A                      A
 Frequencies --     91.2218               158.5201               227.8828
 Red. masses --      6.2967                 6.3554                 6.0261
 Frc consts  --      0.0309                 0.0941                 0.1844
 IR Inten    --      0.1997                26.2687                34.7800

                      4                      5                      6
                      A                      A                      A
 Frequencies --    405.9930               451.0203               499.1339
 Red. masses --      3.8143                 7.1792                 1.1275
 Frc consts  --      0.3704                 0.8604                 0.1655
 IR Inten    --     28.4293                 0.3837               207.9276

                      7                      8                      9
                      A                      A                      A
 Frequencies --    534.6605               578.0061               617.1159
 Red. masses --      2.2979                 4.3443                 2.6377
 Frc consts  --      0.3870                 0.8551                 0.5918
 IR Inten    --    246.6003                19.5957                94.8086

                     10                     11                     12
                      A                      A                      A
 Frequencies --    708.0118               730.0013               752.6534
 Red. masses --      9.6112                 1.3779                 4.8448
 Frc consts  --      2.8386                 0.4326                 1.6170
 IR Inten    --     25.8974                96.7423                 8.2985

                     13                     14                     15
                      A                      A                      A
 Frequencies --    906.4444               915.8068               944.0101
 Red. masses --      1.8006                 2.2486                 5.9889
 Frc consts  --      0.8717                 1.1112                 3.1445
 IR Inten    --     19.7329                46.7480                 6.4259

                     16                     17                     18
                      A                      A                      A
 Frequencies --   1091.9818              1114.6436              1161.4158
 Red. masses --      1.6356                 1.4253                 3.9220
 Frc consts  --      1.1491                 1.0433                 3.1170
 IR Inten    --    166.7116                 3.2670               170.4197

                     19                     20                     21
                      A                      A                      A
 Frequencies --   1215.0285              1287.9027              1295.0364
 Red. masses --      2.6986                 1.3806                 9.7860
 Frc consts  --      2.3472                 1.3492                 9.6698
 IR Inten    --     12.8720               300.8516                 5.6627

                     22                     23                     24
                      A                      A                      A
 Frequencies --   1368.9097              1441.0163              1498.8084
 Red. masses --      1.9650                 2.3990                 6.0467
 Frc consts  --      2.1695                 2.9351                 8.0031
 IR Inten    --    334.9751               262.0260               574.9573

                     25                     26                     27
                      A                      A                      A
 Frequencies --   1542.6702              1746.0106              3311.5470
 Red. masses --      4.2572                 8.7131                 1.0959
 Frc consts  --      5.9692                15.6501                 7.0807
 IR Inten    --     23.6708              1711.8584                10.6658

                     28                     29                     30
                      A                      A                      A
 Frequencies --   3337.2248              3540.5817              3726.3756
 Red. masses --      1.1047                 1.0808                 1.0661
 Frc consts  --      7.2487                 7.9824                 8.7223
 IR Inten    --     21.7971               221.1048               260.9287

 - Thermochemistry -
 -------------------
 Temperature   298.150 Kelvin.  Pressure   1.00000 Atm.
 Atom     1 has atomic number  7 and mass  14.00307

 Molecular mass:   114.03035 amu.
 Principal axes and moments of inertia in atomic units:
                           1         2         3
     Eigenvalues --   356.211881011.172961364.32244
           X            0.99986   0.01656   0.00018
           Y           -0.01656   0.99981   0.01017
           Z           -0.00001  -0.01017   0.99995
 This molecule is an asymmetric top.
 Rotational symmetry number  1.
 Rotational temperatures (Kelvin)      0.24315     0.08566     0.06348
 Rotational constants (GHZ):           5.06648     1.78480     1.32281
 Zero-point vibrational energy     222503.2 (Joules/Mol)
                                   53.17955 (Kcal/Mol)
 Warning -- explicit consideration of   9 degrees of freedom as
           vibrations may cause significant error
 Vibrational temperatures:    131.25   228.08   327.87   584.13   648.92
          (Kelvin)            718.14   769.26   831.62   887.89  1018.67
                             1050.31  1082.90  1304.17  1317.64  1358.22
                             1571.12  1603.72  1671.02  1748.15  1853.00
                             1863.27  1969.56  2073.30  2156.45  2219.56
                             2512.12  4764.58  4801.52  5094.11  5361.42

 Zero-point correction=                           0.084747 (Hartree/Particle)
 Thermal correction to Energy=                    0.091379
 Thermal correction to Enthalpy=                  0.092323
 Thermal correction to Gibbs Free Energy=         0.053037
 Sum of electronic and zero-point Energies=           -431.135657
 Sum of electronic and thermal Energies=              -431.129025
 Sum of electronic and thermal Enthalpies=            -431.128081
 Sum of electronic and thermal Free Energies=         -431.167366

                     E (Thermal)             CV                S
                      KCal/Mol        Cal/Mol-Kelvin    Cal/Mol-Kelvin
 Total                   57.341             24.322             82.683
 Electronic               0.000              0.000              1.377
 Translational            0.889              2.981             40.109
 Rotational               0.889              2.981             27.688
 Vibrational             55.564             18.360             13.509
 Vibration     1          0.602              1.955              3.634
 Vibration     2          0.621              1.893              2.567
 Vibration     3          0.651              1.798              1.896
 Vibration     4          0.771              1.457              0.941
 Vibration     5          0.810              1.359              0.793
 Vibration     6          0.855              1.252              0.660
 Vibration     7          0.890              1.173              0.577
 Vibration     8          0.935              1.079              0.489
 Vibration     9          0.977              0.996              0.421

                           ! Non-Optimized Parameters !
 Normal termination of Gaussian 16 at Mon Nov 13 02:48:26 2023.
