 Gaussian 16, Revision A.03,
 Gaussian 16:  ES64L-G16RevA.03 25-Dec-2016

 -----------------------------------------------------
 # m062x/6-31+G(d,p) opt freq scrf=(SMD,solvent=water)
 -----------------------------------------------------

 ----------
 "Sketch 3"
 ----------
 Symbolic Z-matrix:
 Charge = -1 Multiplicity = 1

 SCF Done:  E(RM062X) =  -75.8990655633     A.U. after    9 cycles
 SCF Done:  E(RM062X) =  -75.9139032323     A.U. after    9 cycles
 SCF Done:  E(RM062X) =  -75.9139445418     A.U. after    8 cycles
 Optimization completed.
    -- Stationary point found.
 Normal termination of Gaussian 16 at Sat Oct 14 22:42:30 2023.

 ----------------------------------------------------------------------
 #N Geom=AllCheck Guess=TCheck SCRF=Check GenChk RM062X/6-31+G(d,p) Fre
 q
 ----------------------------------------------------------------------

 Structure from the checkpoint file:  "/scratch/gongke2021/OH-/Gau-23656.chk"
 ----------
 "Sketch 3"
 ----------
 Charge = -1 Multiplicity = 1

                         Standard orientation:
 ---------------------------------------------------------------------
 Center     Atomic      Atomic             Coordinates (Angstroms)
 Number     Number       Type             X           Y           Z
 ---------------------------------------------------------------------
      1          8           0        0.000000    0.000000    0.107141
      2          1           0        0.000000    0.000000   -0.857126
 ---------------------------------------------------------------------

 SCF Done:  E(RM062X) =  -75.9139445418     A.U. after    1 cycles

 The electronic state is 1-SG.
 Alpha  occ. eigenvalues --  -19.55057  -0.97740  -0.43477  -0.30368  -0.30368
 Alpha virt. eigenvalues --    0.11561   0.18479   0.20580   0.20580   0.31566
 Alpha virt. eigenvalues --    1.09401   1.25084   1.25584   1.25584   1.30425
 Alpha virt. eigenvalues --    1.70119   1.70119   1.94390   1.94391   2.53932

 Mulliken charges:
               1
     1  O   -1.345281
     2  H    0.345281
 Sum of Mulliken charges =  -1.00000

 Dipole moment (field-independent basis, Debye):
    X=              0.0000    Y=              0.0000    Z=             -2.4576  Tot=              2.4576
 Quadrupole moment (field-independent basis, Debye-Ang):
   XX=             -9.6223   YY=             -9.6223   ZZ=             -7.1049
   XY=              0.0000   XZ=              0.0000   YZ=              0.0000

  Exact polarizability:  11.174  -0.000  11.174  -0.000  -0.000  10.817
 Approx polarizability:   7.189  -0.000   7.189  -0.000  -0.000   8.454

                      1
                     SG
 Frequencies --   3884.3111
 Red. masses --      1.0671
 Frc consts  --      9.4859
 IR Inten    --      1.1628

 - Thermochemistry -
 -------------------
 Temperature   298.150 Kelvin.  Pressure   1.00000 Atm.
 Atom     1 has atomic number  8 and mass  15.99491

 Molecular mass:    17.00274 amu.
 Principal axes and moments of inertia in atomic units:
                           1         2         3
     Eigenvalues --     0.00000   3.14804   3.14804
           X            0.00000  -0.00000   1.00000
           Y            0.00000   1.00000   0.00000
           Z            1.00000   0.00000   0.00000
 This molecule is a prolate symmetric top.
 Rotational symmetry number  1.
 Rotational temperature (Kelvin)     27.51360
 Rotational constant (GHZ):         573.290450
 Zero-point vibrational energy      23233.3 (Joules/Mol)
                                    5.55290 (Kcal/Mol)
 Vibrational temperatures:   5588.66
          (Kelvin)

 Zero-point correction=                           0.008849 (Hartree/Particle)
 Thermal correction to Energy=                    0.011210
 Thermal correction to Enthalpy=                  0.012154
 Thermal correction to Gibbs Free Energy=        -0.007402
 Sum of electronic and zero-point Energies=            -75.905095
 Sum of electronic and thermal Energies=               -75.902735
 Sum of electronic and thermal Enthalpies=             -75.901791
 Sum of electronic and thermal Free Energies=          -75.921347

                     E (Thermal)             CV                S
                      KCal/Mol        Cal/Mol-Kelvin    Cal/Mol-Kelvin
 Total                    7.034              4.968             41.159
 Electronic               0.000              0.000              0.000
 Translational            0.889              2.981             34.437
 Rotational               0.592              1.987              6.723
 Vibrational              5.553              0.000              0.000

 Optimization completed.
    -- Stationary point found.
 Normal termination of Gaussian 16 at Sat Oct 14 22:42:38 2023.
