 Gaussian 16, Revision A.03,
 Gaussian 16:  ES64L-G16RevA.03 25-Dec-2016

 -----------------------------------------------------
 # m062x/6-31+G(d,p) opt freq scrf=(SMD,solvent=water)
 -----------------------------------------------------

 ----------
 "Sketch 3"
 ----------
 Symbolic Z-matrix:
 Charge =  0 Multiplicity = 2

 SCF Done:  E(UM062X) =  -75.6997308945     A.U. after   10 cycles
 SCF Done:  E(UM062X) =  -75.7114185435     A.U. after   11 cycles
 SCF Done:  E(UM062X) =  -75.7114528626     A.U. after    8 cycles
 Optimization completed.
    -- Stationary point found.
 Normal termination of Gaussian 16 at Sun Oct 15 01:51:32 2023.

 ----------------------------------------------------------------------
 #N Geom=AllCheck Guess=TCheck SCRF=Check GenChk UM062X/6-31+G(d,p) Fre
 q
 ----------------------------------------------------------------------

 Structure from the checkpoint file:  "/scratch/gongke2021/OH/Gau-29889.chk"
 ----------
 "Sketch 3"
 ----------
 Charge =  0 Multiplicity = 2

                         Standard orientation:
 ---------------------------------------------------------------------
 Center     Atomic      Atomic             Coordinates (Angstroms)
 Number     Number       Type             X           Y           Z
 ---------------------------------------------------------------------
      1          8           0        0.000000    0.000000    0.108698
      2          1           0        0.000000    0.000000   -0.869582
 ---------------------------------------------------------------------

 SCF Done:  E(UM062X) =  -75.7114528626     A.U. after    1 cycles

 Unable to determine electronic state:  an orbital has unidentified symmetry.
 Alpha  occ. eigenvalues --  -19.71789  -1.13896  -0.56105  -0.49912  -0.43871
 Alpha virt. eigenvalues --    0.09931   0.16041   0.17453   0.17606   0.27141
 Alpha virt. eigenvalues --    1.00232   1.12464   1.16608   1.18020   1.23492
 Alpha virt. eigenvalues --    1.57732   1.60133   1.79888   1.80040   2.40611

  Beta  occ. eigenvalues --  -19.70107  -1.05648  -0.52895  -0.40275
  Beta virt. eigenvalues --   -0.10255   0.09213   0.16215   0.18091   0.18650
  Beta virt. eigenvalues --    0.27455   1.01932   1.18088   1.18917   1.20281
  Beta virt. eigenvalues --    1.24182   1.61540   1.61922   1.84941   1.86729

 Mulliken charges and spin densities:
               1          2
     1  O   -0.425117   1.026114
     2  H    0.425117  -0.026114
 Sum of Mulliken charges =  -0.00000   1.00000

 Dipole moment (field-independent basis, Debye):
    X=              0.0000    Y=              0.0000    Z=             -2.2698  Tot=              2.2698
 Quadrupole moment (field-independent basis, Debye-Ang):
   XX=             -6.9523   YY=             -5.5581   ZZ=             -4.5136
   XY=              0.0000   XZ=              0.0000   YZ=              0.0000

  Exact polarizability:   5.250   0.000   4.083   0.000   0.000   7.349
 Approx polarizability:   4.041  -0.000   3.331  -0.000  -0.000   6.269

                      1
                     SG
 Frequencies --   3741.5936
 Red. masses --      1.0671
 Frc consts  --      8.8017
 IR Inten    --    105.0115

 - Thermochemistry -
 -------------------
 Temperature   298.150 Kelvin.  Pressure   1.00000 Atm.
 Atom     1 has atomic number  8 and mass  15.99491

 Molecular mass:    17.00274 amu.
 Principal axes and moments of inertia in atomic units:
                           1         2         3
     Eigenvalues --     0.00000   3.24020   3.24020
           X            0.00000  -0.00000   1.00000
           Y            0.00000   1.00000   0.00000
           Z            1.00000   0.00000   0.00000
 This molecule is a prolate symmetric top.
 Rotational symmetry number  1.
 Rotational temperature (Kelvin)     26.73103
 Rotational constant (GHZ):         556.984332
 Zero-point vibrational energy      22379.7 (Joules/Mol)
                                    5.34888 (Kcal/Mol)
 Vibrational temperatures:   5383.32
          (Kelvin)

 Zero-point correction=                           0.008524 (Hartree/Particle)
 Thermal correction to Energy=                    0.010884
 Thermal correction to Enthalpy=                  0.011829
 Thermal correction to Gibbs Free Energy=        -0.008409
 Sum of electronic and zero-point Energies=            -75.702929
 Sum of electronic and thermal Energies=               -75.700568
 Sum of electronic and thermal Enthalpies=             -75.699624
 Sum of electronic and thermal Free Energies=          -75.719862

                     E (Thermal)             CV                S
                      KCal/Mol        Cal/Mol-Kelvin    Cal/Mol-Kelvin
 Total                    6.830              4.968             42.594
 Electronic               0.000              0.000              1.377
 Translational            0.889              2.981             34.437
 Rotational               0.592              1.987              6.780
 Vibrational              5.349              0.000              0.000

 Optimization completed.
    -- Stationary point found.
 Normal termination of Gaussian 16 at Sun Oct 15 01:51:39 2023.
