 Gaussian 16, Revision A.03,
 Gaussian 16:  ES64L-G16RevA.03 25-Dec-2016

 -----------------------------------------------------
 # opt freq 6-31+g(d,p) scrf=(smd,solvent=water) m062x
 -----------------------------------------------------

 -------------------
 Title Card Required
 -------------------
 Symbolic Z-matrix:
 Charge =  0 Multiplicity = 1

 SCF Done:  E(RM062X) =  -491.034341158     A.U. after   14 cycles
 SCF Done:  E(RM062X) =  -491.059518264     A.U. after   12 cycles
 SCF Done:  E(RM062X) =  -491.064549401     A.U. after   12 cycles
 SCF Done:  E(RM062X) =  -491.065324869     A.U. after   12 cycles
 SCF Done:  E(RM062X) =  -491.066513791     A.U. after   12 cycles
 SCF Done:  E(RM062X) =  -491.067099245     A.U. after   11 cycles
 SCF Done:  E(RM062X) =  -491.067455308     A.U. after   11 cycles
 SCF Done:  E(RM062X) =  -491.067610178     A.U. after   11 cycles
 SCF Done:  E(RM062X) =  -491.067721486     A.U. after   10 cycles
 SCF Done:  E(RM062X) =  -491.067797204     A.U. after   10 cycles
 SCF Done:  E(RM062X) =  -491.068338142     A.U. after    8 cycles
 SCF Done:  E(RM062X) =  -491.068338344     A.U. after    7 cycles
 SCF Done:  E(RM062X) =  -491.068338189     A.U. after    8 cycles
 SCF Done:  E(RM062X) =  -491.068337922     A.U. after    7 cycles
 SCF Done:  E(RM062X) =  -491.068338757     A.U. after    8 cycles
 SCF Done:  E(RM062X) =  -491.068337553     A.U. after    9 cycles
 SCF Done:  E(RM062X) =  -491.068337371     A.U. after    7 cycles
 SCF Done:  E(RM062X) =  -491.068338687     A.U. after    9 cycles
 SCF Done:  E(RM062X) =  -491.068337398     A.U. after    9 cycles
 Optimization completed.
    -- Stationary point found.
 Normal termination of Gaussian 16 at Sun Nov  5 10:39:25 2023.

 ----------------------------------------------------------------------
 #N Geom=AllCheck Guess=TCheck SCRF=Check GenChk RM062X/6-31+G(d,p) Fre
 q
 ----------------------------------------------------------------------

 Structure from the checkpoint file:  "/scratch/gongke2021/bizuo-PC/Gau-22728.chk"
 -------------------
 Title Card Required
 -------------------
 Charge =  0 Multiplicity = 1

                         Standard orientation:
 ---------------------------------------------------------------------
 Center     Atomic      Atomic             Coordinates (Angstroms)
 Number     Number       Type             X           Y           Z
 ---------------------------------------------------------------------
      1          7           0       -0.261703   -1.034442   -0.122985
      2          7           0       -0.473326    0.300741   -0.009066
      3          6           0       -1.805032    0.603595    0.100124
      4          6           0       -2.479598   -0.585581    0.059917
      5          6           0       -1.466606   -1.571067   -0.080696
      6          1           0       -2.135709    1.626666    0.196572
      7          1           0       -3.546363   -0.737063    0.121896
      8          6           0        0.574339    1.249446   -0.025114
      9          8           0        0.306433    2.436019    0.012500
     10          8           0        1.794331    0.793495   -0.087187
     11          1           0        1.659370   -2.096951    0.095491
     12          1           0       -1.578552   -2.644508   -0.153171
     13          8           0        2.503823   -1.624350    0.017447
     14          1           0        1.973654   -0.221181   -0.033093
     15          1           0        2.997491   -1.810725    0.829186
 ---------------------------------------------------------------------

 SCF Done:  E(RM062X) =  -491.068337398     A.U. after    1 cycles

 The electronic state is 1-A.
 Alpha  occ. eigenvalues --  -19.68894 -19.67099 -19.65179 -14.86585 -14.80907
 Alpha  occ. eigenvalues --  -10.74074 -10.60195 -10.58954 -10.55726  -1.25951
 Alpha  occ. eigenvalues --   -1.17913  -1.16452  -1.14766  -0.95651  -0.89934
 Alpha  occ. eigenvalues --   -0.75871  -0.71242  -0.69653  -0.64455  -0.62210
 Alpha  occ. eigenvalues --   -0.58610  -0.57191  -0.54682  -0.51714  -0.50846
 Alpha  occ. eigenvalues --   -0.49799  -0.48076  -0.46899  -0.42511  -0.40598
 Alpha  occ. eigenvalues --   -0.39082  -0.38922  -0.33999  -0.32596
 Alpha virt. eigenvalues --   -0.00888   0.01864   0.03682   0.04182   0.04556
 Alpha virt. eigenvalues --    0.05775   0.06381   0.06964   0.07474   0.09123
 Alpha virt. eigenvalues --    0.09658   0.10229   0.10834   0.11287   0.12443

 Mulliken charges:
               1
     1  N   -0.256065
     2  N   -0.200359
     3  C   -0.231839
     4  C    0.039563
     5  C   -0.292388
     6  H    0.250348
     7  H    0.222986
     8  C    0.826363
     9  O   -0.566991
    10  O   -0.641549
    11  H    0.468282
    12  H    0.219870
    13  O   -0.837893
    14  H    0.540221
    15  H    0.459451
 Sum of Mulliken charges =  -0.00000

 Dipole moment (field-independent basis, Debye):
    X=             -2.5160    Y=             -6.9805    Z=              2.4138  Tot=              7.8029
 Quadrupole moment (field-independent basis, Debye-Ang):
   XX=            -43.0222   YY=            -55.9012   ZZ=            -52.9428
   XY=             -6.8415   XZ=              6.1189   YZ=             -3.6190

  Exact polarizability: 114.798   6.239 124.411  -1.492   2.257  59.923
 Approx polarizability:  98.339   3.210 106.911  -1.376   2.049  54.946

                      1                      2                      3
                      A                      A                      A
 Frequencies --     39.0687               113.7556               128.7337
 Red. masses --      4.8464                 7.1070                 3.5919
 Frc consts  --      0.0044                 0.0542                 0.0351
 IR Inten    --     13.8312                 6.1539                 8.7479

                      4                      5                      6
                      A                      A                      A
 Frequencies --    154.9221               188.8671               243.4397
 Red. masses --      6.1118                 5.3614                 1.0650
 Frc consts  --      0.0864                 0.1127                 0.0372
 IR Inten    --      1.8273                30.6526               169.5961

                      7                      8                      9
                      A                      A                      A
 Frequencies --    278.5680               394.4732               434.6862
 Red. masses --      6.0016                 1.1488                 2.5463
 Frc consts  --      0.2744                 0.1053                 0.2835
 IR Inten    --     97.0707               330.7501               129.4465

                     10                     11                     12
                      A                      A                      A
 Frequencies --    515.3340               576.7184               601.9676
 Red. masses --      2.2911                 4.6499                 3.2796
 Frc consts  --      0.3585                 0.9112                 0.7002
 IR Inten    --     36.4259                67.2320                 9.4807

                     13                     14                     15
                      A                      A                      A
 Frequencies --    662.2371               765.2646               781.0914
 Red. masses --      4.8140                 9.8708                 8.0371
 Frc consts  --      1.2439                 3.4058                 2.8890
 IR Inten    --     11.7022               119.1379               111.2314

                     16                     17                     18
                      A                      A                      A
 Frequencies --    787.6817               907.8583               926.7703
 Red. masses --      1.2473                 1.2974                 6.0442
 Frc consts  --      0.4559                 0.6300                 3.0587
 IR Inten    --    109.7286                 3.0129                15.8757

                     19                     20                     21
                      A                      A                      A
 Frequencies --    943.7945               980.7938              1056.3873
 Red. masses --      1.3956                 2.8548                 1.0687
 Frc consts  --      0.7324                 1.6180                 0.7027
 IR Inten    --      6.2424                86.0021               227.1081

                     22                     23                     24
                      A                      A                      A
 Frequencies --   1059.3238              1103.8923              1221.6945
 Red. masses --      1.4261                 1.6296                 1.7051
 Frc consts  --      0.9429                 1.1700                 1.4994
 IR Inten    --    117.6638                42.6221                26.9229

                     25                     26                     27
                      A                      A                      A
 Frequencies --   1270.8786              1298.6718              1347.5801
 Red. masses --      2.0827                 1.5521                 7.4069
 Frc consts  --      1.9819                 1.5423                 7.9249
 IR Inten    --    161.2097               896.8101               527.7014

                     28                     29                     30
                      A                      A                      A
 Frequencies --   1403.4954              1442.0513              1497.3931
 Red. masses --      3.9715                 4.0447                 6.6269
 Frc consts  --      4.6092                 4.9556                 8.7545
 IR Inten    --    704.2442               202.8455               218.4323

                     31                     32                     33
                      A                      A                      A
 Frequencies --   1577.4750              1614.8664              1769.5264
 Red. masses --      1.0823                 5.0201                 9.2179
 Frc consts  --      1.5868                 7.7132                17.0057
 IR Inten    --    240.6684                37.2722              1113.3632

                     34                     35                     36
                      A                      A                      A
 Frequencies --   2574.3646              3290.2124              3311.2428
 Red. masses --      1.1018                 1.0969                 1.0956
 Frc consts  --      4.3023                 6.9961                 7.0779
 IR Inten    --   2939.9013                 0.4573                 9.2112

                     37                     38                     39
                      A                      A                      A
 Frequencies --   3327.3935              3784.0841              3886.9660
 Red. masses --      1.1088                 1.0477                 1.0799
 Frc consts  --      7.2327                 8.8395                 9.6131
 IR Inten    --     14.1639               162.9833               327.1315

 - Thermochemistry -
 -------------------
 Temperature   298.150 Kelvin.  Pressure   1.00000 Atm.
 Atom     1 has atomic number  7 and mass  14.00307

 Molecular mass:   130.03784 amu.
 Principal axes and moments of inertia in atomic units:
                           1         2         3
     Eigenvalues --   853.685271204.433252048.50133
           X            0.99814  -0.06075   0.00591
           Y            0.06078   0.99814  -0.00479
           Z           -0.00561   0.00514   0.99997
 This molecule is an asymmetric top.
 Rotational symmetry number  1.
 Warning -- assumption of classical behavior for rotation
           may cause significant error
 Rotational temperatures (Kelvin)      0.10146     0.07191     0.04228
 Rotational constants (GHZ):           2.11406     1.49842     0.88101
 Zero-point vibrational energy     288680.0 (Joules/Mol)
                                   68.99617 (Kcal/Mol)
 Warning -- explicit consideration of  12 degrees of freedom as
           vibrations may cause significant error
 Vibrational temperatures:     56.21   163.67   185.22   222.90   271.74
          (Kelvin)            350.26   400.80   567.56   625.42   741.45
                              829.77   866.10   952.81  1101.05  1123.82
                             1133.30  1306.21  1333.42  1357.91  1411.14
                             1519.91  1524.13  1588.25  1757.75  1828.51
                             1868.50  1938.87  2019.32  2074.79  2154.41
                             2269.63  2323.43  2545.95  3703.94  4733.88
                             4764.14  4787.38  5444.45  5592.48

 Zero-point correction=                           0.109952 (Hartree/Particle)
 Thermal correction to Energy=                    0.119055
 Thermal correction to Enthalpy=                  0.120000
 Thermal correction to Gibbs Free Energy=         0.075067
 Sum of electronic and zero-point Energies=           -490.958385
 Sum of electronic and thermal Energies=              -490.949282
 Sum of electronic and thermal Enthalpies=            -490.948338
 Sum of electronic and thermal Free Energies=         -490.993270

                     E (Thermal)             CV                S
                      KCal/Mol        Cal/Mol-Kelvin    Cal/Mol-Kelvin
 Total                   74.708             31.959             94.568
 Electronic               0.000              0.000              0.000
 Translational            0.889              2.981             40.501
 Rotational               0.889              2.981             29.134
 Vibrational             72.931             25.997             24.933
 Vibration     1          0.594              1.981              5.306
 Vibration     2          0.607              1.938              3.204
 Vibration     3          0.611              1.925              2.965
 Vibration     4          0.620              1.897              2.611
 Vibration     5          0.633              1.855              2.239
 Vibration     6          0.659              1.774              1.778
 Vibration     7          0.679              1.713              1.542
 Vibration     8          0.761              1.482              0.983
 Vibration     9          0.795              1.395              0.843
 Vibration    10          0.870              1.216              0.621
 Vibration    11          0.933              1.082              0.491
 Vibration    12          0.960              1.028              0.446

                           ! Non-Optimized Parameters !
 Normal termination of Gaussian 16 at Sun Nov  5 10:41:33 2023.
