 Gaussian 16, Revision A.03,
 Gaussian 16:  ES64L-G16RevA.03 25-Dec-2016

 ----------------------------------------------------------------------
 # opt=(calcfc,ts,noeigentest) freq 6-31+g(d,p) scrf=(smd,solvent=water
 ) integral=grid=ultrafine m062x
 ----------------------------------------------------------------------

 -------------------
 Title Card Required
 -------------------
 Symbolic Z-matrix:
 Charge = -1 Multiplicity = 2

 SCF Done:  E(UM062X) =  -414.689995270     A.U. after   17 cycles
 SCF Done:  E(UM062X) =  -414.702884065     A.U. after   17 cycles
 SCF Done:  E(UM062X) =  -414.702395165     A.U. after   15 cycles
 SCF Done:  E(UM062X) =  -414.702643693     A.U. after   17 cycles
 SCF Done:  E(UM062X) =  -414.702212500     A.U. after   17 cycles
 SCF Done:  E(UM062X) =  -414.697930897     A.U. after   17 cycles
 SCF Done:  E(UM062X) =  -414.703511216     A.U. after   16 cycles
 SCF Done:  E(UM062X) =  -414.704150714     A.U. after   16 cycles
 SCF Done:  E(UM062X) =  -414.704345933     A.U. after   16 cycles
 SCF Done:  E(UM062X) =  -414.704381922     A.U. after   15 cycles
 SCF Done:  E(UM062X) =  -414.704392098     A.U. after   13 cycles
 SCF Done:  E(UM062X) =  -414.704394383     A.U. after   12 cycles
 SCF Done:  E(UM062X) =  -414.704394508     A.U. after   11 cycles
 SCF Done:  E(UM062X) =  -414.704394658     A.U. after   11 cycles
 Optimization completed.
    -- Stationary point found.
 Normal termination of Gaussian 16 at Sun Nov  5 05:19:27 2023.

 ----------------------------------------------------------------------
 #N Geom=AllCheck Guess=TCheck SCRF=Check GenChk UM062X/6-31+G(d,p) Fre
 q
 ----------------------------------------------------------------------

 Structure from the checkpoint file:  "/scratch/gongke2021/bizuo-TS/Gau-25488.chk"
 -------------------
 Title Card Required
 -------------------
 Charge = -1 Multiplicity = 2

                         Standard orientation:
 ---------------------------------------------------------------------
 Center     Atomic      Atomic             Coordinates (Angstroms)
 Number     Number       Type             X           Y           Z
 ---------------------------------------------------------------------
      1          7           0       -0.605530   -1.050111    0.252355
      2          7           0        0.040705    0.197312    0.306500
      3          6           0       -0.876140    1.237489    0.086863
      4          6           0       -2.096698    0.614489   -0.184720
      5          6           0       -1.902217   -0.761718   -0.113105
      6          1           0       -0.568507    2.270151    0.114021
      7          1           0       -3.031666    1.116812   -0.393470
      8          6           0        1.375183    0.074164   -0.000255
      9          8           0        2.151970    1.044494   -0.101512
     10          8           0        1.679055   -1.201009   -0.155261
     11          1           0        0.527717   -1.592317   -0.090253
     12          1           0       -2.622731   -1.559477   -0.220787
 ---------------------------------------------------------------------

 SCF Done:  E(UM062X) =  -414.704394658     A.U. after    1 cycles

 The electronic state is 2-A.
 Alpha  occ. eigenvalues --  -19.63920 -19.61661 -14.82137 -14.77350 -10.68488
 Alpha  occ. eigenvalues --  -10.56083 -10.55883 -10.53746  -1.21527  -1.12265
 Alpha  occ. eigenvalues --   -1.09848  -0.91756  -0.86952  -0.72845  -0.66976
 Alpha  occ. eigenvalues --   -0.63064  -0.60773  -0.56070  -0.53293  -0.51149
 Alpha  occ. eigenvalues --   -0.48870  -0.46381  -0.45779  -0.44544  -0.37730
 Alpha  occ. eigenvalues --   -0.37413  -0.35293  -0.33085  -0.31336  -0.14065
 Alpha virt. eigenvalues --    0.02837   0.04442   0.04978   0.05527   0.06421
 Alpha virt. eigenvalues --    0.07118   0.07703   0.07901   0.09249   0.10137
 Alpha virt. eigenvalues --    0.10973   0.12563   0.12939   0.14012   0.15587

  Beta  occ. eigenvalues --  -19.63877 -19.61528 -14.82064 -14.76982 -10.68378
  Beta  occ. eigenvalues --  -10.55750 -10.55694 -10.53831  -1.21085  -1.11674
  Beta  occ. eigenvalues --   -1.09473  -0.90860  -0.86119  -0.71932  -0.66550
  Beta  occ. eigenvalues --   -0.62421  -0.60087  -0.54753  -0.52824  -0.50715
  Beta  occ. eigenvalues --   -0.48467  -0.45841  -0.44393  -0.44058  -0.36967
  Beta  occ. eigenvalues --   -0.36511  -0.34749  -0.30733  -0.28546
  Beta virt. eigenvalues --    0.00517   0.02311   0.04199   0.04580   0.04813
  Beta virt. eigenvalues --    0.06220   0.06867   0.07437   0.08435   0.08903
  Beta virt. eigenvalues --    0.09767   0.10997   0.12090   0.12733   0.13431

 Mulliken charges and spin densities:
               1          2
     1  N   -0.388166   0.203191
     2  N   -0.226335   0.006962
     3  C   -0.402262   0.458686
     4  C    0.073990  -0.131523
     5  C   -0.386669   0.297122
     6  H    0.210120  -0.021331
     7  H    0.194807   0.002912
     8  C    0.772978   0.110869
     9  O   -0.768498   0.060963
    10  O   -0.720460   0.016326
    11  H    0.446097   0.009112
    12  H    0.194399  -0.013291
 Sum of Mulliken charges =  -1.00000   1.00000

 Dipole moment (field-independent basis, Debye):
    X=             -7.4706    Y=             -0.3136    Z=             -0.3326  Tot=              7.4846
 Quadrupole moment (field-independent basis, Debye-Ang):
   XX=            -67.4398   YY=            -53.5338   ZZ=            -52.6185
   XY=             -2.5773   XZ=              3.0323   YZ=              0.8760

  Exact polarizability: 158.639   7.761 126.242   0.822   0.075  71.069
 Approx polarizability: 115.589   6.224 104.843   0.854   0.038  61.182

 ******    1 imaginary frequencies (negative Signs) ******

                      1                      2                      3
                      A                      A                      A
 Frequencies --  -1494.7745                99.9891               181.7357
 Red. masses --      1.0782                 6.8688                 6.8652
 Frc consts  --      1.4194                 0.0405                 0.1336
 IR Inten    --   2402.5534                37.6037                 7.2583

                      4                      5                      6
                      A                      A                      A
 Frequencies --    306.3757               407.3382               486.4807
 Red. masses --      5.7764                 1.8247                 2.6415
 Frc consts  --      0.3195                 0.1784                 0.3683
 IR Inten    --      2.7418               114.8933                27.0838

                      7                      8                      9
                      A                      A                      A
 Frequencies --    566.4392               598.6940               661.7833
 Red. masses --      4.0489                 5.6449                 8.2272
 Frc consts  --      0.7654                 1.1921                 2.1229
 IR Inten    --     18.7902                25.6698                20.4804

                     10                     11                     12
                      A                      A                      A
 Frequencies --    689.8084               709.8603               760.4111
 Red. masses --      1.3038                11.6313                10.1413
 Frc consts  --      0.3655                 3.4532                 3.4549
 IR Inten    --    113.5598                55.8562                29.8407

                     13                     14                     15
                      A                      A                      A
 Frequencies --    863.4628               906.1996               909.5287
 Red. masses --      1.2652                 4.4673                 4.6026
 Frc consts  --      0.5558                 2.1614                 2.2433
 IR Inten    --     15.2447                43.7564                12.6629

                     16                     17                     18
                      A                      A                      A
 Frequencies --   1025.5009              1099.6185              1122.9090
 Red. masses --      1.3904                 1.8482                 1.1323
 Frc consts  --      0.8615                 1.3167                 0.8412
 IR Inten    --    159.0800                54.9255               177.3115

                     19                     20                     21
                      A                      A                      A
 Frequencies --   1160.2608              1204.2516              1272.9560
 Red. masses --      4.9436                 1.8272                 5.6065
 Frc consts  --      3.9211                 1.5613                 5.3527
 IR Inten    --    521.6881                85.5362               336.9976

                     22                     23                     24
                      A                      A                      A
 Frequencies --   1345.4317              1418.8832              1461.4847
 Red. masses --      2.9396                 3.4738                 7.4886
 Frc consts  --      3.1352                 4.1204                 9.4240
 IR Inten    --    321.2897               310.1944               534.6932

                     25                     26                     27
                      A                      A                      A
 Frequencies --   1505.9589              1625.0039              2021.2041
 Red. masses --      3.7898                 8.9699                 1.0633
 Frc consts  --      5.0639                13.9556                 2.5594
 IR Inten    --     34.6312              1688.0685               204.0786

                     28                     29                     30
                      A                      A                      A
 Frequencies --   3279.2167              3300.1710              3330.5909
 Red. masses --      1.0917                 1.0982                 1.0986
 Frc consts  --      6.9164                 7.0469                 7.1802
 IR Inten    --      2.0922                 2.4193                 7.5243

 - Thermochemistry -
 -------------------
 Temperature   298.150 Kelvin.  Pressure   1.00000 Atm.
 Atom     1 has atomic number  7 and mass  14.00307

 Molecular mass:   112.02728 amu.
 Principal axes and moments of inertia in atomic units:
                           1         2         3
     Eigenvalues --   362.51026 973.355551309.98972
           X            0.99995  -0.00838   0.00629
           Y            0.00836   0.99996   0.00314
           Z           -0.00632  -0.00309   0.99998
 This molecule is an asymmetric top.
 Rotational symmetry number  1.
 Rotational temperatures (Kelvin)      0.23893     0.08898     0.06612
 Rotational constants (GHZ):           4.97846     1.85414     1.37768
    1 imaginary frequencies ignored.
 Zero-point vibrational energy     205288.5 (Joules/Mol)
                                   49.06512 (Kcal/Mol)
 Warning -- explicit consideration of   7 degrees of freedom as
           vibrations may cause significant error
 Vibrational temperatures:    143.86   261.48   440.81   586.07   699.94
          (Kelvin)            814.98   861.39   952.16   992.48  1021.33
                             1094.06  1242.33  1303.82  1308.61  1475.47
                             1582.11  1615.62  1669.36  1732.65  1831.50
                             1935.78  2041.46  2102.75  2166.74  2338.02
                             2908.06  4718.06  4748.21  4791.98

 Zero-point correction=                           0.078190 (Hartree/Particle)
 Thermal correction to Energy=                    0.084408
 Thermal correction to Enthalpy=                  0.085352
 Thermal correction to Gibbs Free Energy=         0.046944
 Sum of electronic and zero-point Energies=           -414.626204
 Sum of electronic and thermal Energies=              -414.619987
 Sum of electronic and thermal Enthalpies=            -414.619042
 Sum of electronic and thermal Free Energies=         -414.657451

                     E (Thermal)             CV                S
                      KCal/Mol        Cal/Mol-Kelvin    Cal/Mol-Kelvin
 Total                   52.967             23.054             80.838
 Electronic               0.000              0.000              1.377
 Translational            0.889              2.981             40.057
 Rotational               0.889              2.981             27.627
 Vibrational             51.189             17.093             11.777
 Vibration     1          0.604              1.949              3.455
 Vibration     2          0.630              1.865              2.311
 Vibration     3          0.697              1.662              1.382
 Vibration     4          0.772              1.454              0.936
 Vibration     5          0.842              1.280              0.693
 Vibration     6          0.922              1.104              0.511
 Vibration     7          0.957              1.035              0.452

 Optimization completed.
    -- Stationary point found.
 Normal termination of Gaussian 16 at Sun Nov  5 05:21:41 2023.
