 Gaussian 16, Revision C.01,
 Gaussian 16:  ES64L-G16RevC.01  3-Jul-2019

 -----------------------------------------------------
 # opt freq 6-31+g(d,p) m062x scrf=(SMD,solvent=water)
 -----------------------------------------------------

 -------------------
 Title Card Required
 -------------------
 Symbolic Z-matrix:
 Charge =  0 Multiplicity = 1

 SCF Done:  E(RM062X) =  -414.608816798     A.U. after   14 cycles
 SCF Done:  E(RM062X) =  -414.637348711     A.U. after   12 cycles
 SCF Done:  E(RM062X) =  -414.643983987     A.U. after   12 cycles
 SCF Done:  E(RM062X) =  -414.645507737     A.U. after   11 cycles
 SCF Done:  E(RM062X) =  -414.646810186     A.U. after   11 cycles
 SCF Done:  E(RM062X) =  -414.647246480     A.U. after   10 cycles
 SCF Done:  E(RM062X) =  -414.647316361     A.U. after   10 cycles
 SCF Done:  E(RM062X) =  -414.647314493     A.U. after   11 cycles
 SCF Done:  E(RM062X) =  -414.647366362     A.U. after   10 cycles
 SCF Done:  E(RM062X) =  -414.647375816     A.U. after    9 cycles
 SCF Done:  E(RM062X) =  -414.647996240     A.U. after    9 cycles
 SCF Done:  E(RM062X) =  -414.647996471     A.U. after    8 cycles
 SCF Done:  E(RM062X) =  -414.647996514     A.U. after    7 cycles
 SCF Done:  E(RM062X) =  -414.647996538     A.U. after    8 cycles
 SCF Done:  E(RM062X) =  -414.647996567     A.U. after    7 cycles
 SCF Done:  E(RM062X) =  -414.647996634     A.U. after    8 cycles
 SCF Done:  E(RM062X) =  -414.647996745     A.U. after    7 cycles
 SCF Done:  E(RM062X) =  -414.647996909     A.U. after    8 cycles
 SCF Done:  E(RM062X) =  -414.647997014     A.U. after    8 cycles
 Optimization completed.
    -- Stationary point found.
 Normal termination of Gaussian 16 at Fri Oct 27 05:12:37 2023.

 ----------------------------------------------------------------------
 #N Geom=AllCheck Guess=TCheck SCRF=Check GenChk RM062X/6-31+G(d,p) Fre
 q
 ----------------------------------------------------------------------

 Structure from the checkpoint file:  "/home/Tinker/g16/scratch/Gau-1641640.chk"
 -------------------
 Title Card Required
 -------------------
 Charge =  0 Multiplicity = 1

                         Standard orientation:
 ---------------------------------------------------------------------
 Center     Atomic      Atomic             Coordinates (Angstroms)
 Number     Number       Type             X           Y           Z
 ---------------------------------------------------------------------
      1          7           0       -0.838764   -0.843778   -0.000744
      2          7           0       -0.337746    0.400657   -0.000575
      3          6           0       -1.407593    1.195467    0.000093
      4          6           0       -2.604200    0.450272    0.000525
      5          6           0       -2.187761   -0.867904    0.000064
      6          1           0       -1.279222    2.269253    0.000163
      7          1           0       -3.619130    0.817748    0.001098
      8          6           0        2.402608   -0.049810    0.000157
      9          8           0        2.721886    1.068287   -0.000130
     10          8           0        2.135089   -1.183043    0.000519
     11          1           0       -0.206734   -1.635332   -0.000193
     12          1           0       -2.733470   -1.799925    0.000022
 ---------------------------------------------------------------------

 SCF Done:  E(RM062X) =  -414.647997014     A.U. after    1 cycles

 The electronic state is 1-A.
 Alpha  occ. eigenvalues --  -19.72773 -19.72733 -14.83890 -14.79111 -10.75237
 Alpha  occ. eigenvalues --  -10.58603 -10.56995 -10.54279  -1.28923  -1.23960
 Alpha  occ. eigenvalues --   -1.16790  -0.92029  -0.87819  -0.69102  -0.67805
 Alpha  occ. eigenvalues --   -0.65869  -0.62487  -0.60730  -0.59855  -0.59467
 Alpha  occ. eigenvalues --   -0.52196  -0.50986  -0.49094  -0.46002  -0.44245
 Alpha  occ. eigenvalues --   -0.44241  -0.37390  -0.32226  -0.30961
 Alpha virt. eigenvalues --    0.01120   0.03298   0.03864   0.04288   0.04793
 Alpha virt. eigenvalues --    0.05307   0.05863   0.07073   0.07661   0.08628
 Alpha virt. eigenvalues --    0.08681   0.08964   0.09215   0.09653   0.11249

 Mulliken charges:
               1
     1  N   -0.220182
     2  N   -0.287165
     3  C   -0.237281
     4  C   -0.075130
     5  C   -0.231343
     6  H    0.201765
     7  H    0.206876
     8  C    0.820655
     9  O   -0.393687
    10  O   -0.417117
    11  H    0.401697
    12  H    0.230912
 Sum of Mulliken charges =   0.00000

 Dipole moment (field-independent basis, Debye):
    X=             -2.1128    Y=             -2.6985    Z=              0.0019  Tot=              3.4272
 Quadrupole moment (field-independent basis, Debye-Ang):
   XX=            -40.4637   YY=            -41.1347   ZZ=            -47.6835
   XY=             -0.4257   XZ=             -0.0022   YZ=              0.0025

  Exact polarizability:      88.159       5.808     106.111      -0.018       0.000      52.848
 Approx polarizability:      79.430       5.501     101.204      -0.018       0.001      47.991

                      1                      2                      3
                      A                      A                      A
 Frequencies --     28.8785                41.9058                73.6472
 Red. masses --      6.4025                 5.3307                 5.8459
 Frc consts  --      0.0031                 0.0055                 0.0187
 IR Inten    --      4.2353                 0.8033                 4.9026

                      4                      5                      6
                      A                      A                      A
 Frequencies --    110.6851               154.3410               599.6402
 Red. masses --      9.5847                10.8405                 2.0823
 Frc consts  --      0.0692                 0.1521                 0.4411
 IR Inten    --      0.0414                 0.8075               106.7795

                      7                      8                      9
                      A                      A                      A
 Frequencies --    635.0820               647.3431               662.5360
 Red. masses --     12.9451                 2.1582                12.8168
 Frc consts  --      3.0762                 0.5329                 3.3147
 IR Inten    --    118.4821                 2.6041                53.4912

                     10                     11                     12
                      A                      A                      A
 Frequencies --    701.5086               778.2224               890.0789
 Red. masses --      2.3608                 1.1800                 1.2728
 Frc consts  --      0.6845                 0.4210                 0.5941
 IR Inten    --     66.8679               166.8205                 5.6089

                     13                     14                     15
                      A                      A                      A
 Frequencies --    922.3841               925.4958               945.2968
 Red. masses --      6.0307                 1.3672                 3.3102
 Frc consts  --      3.0230                 0.6900                 1.7428
 IR Inten    --     13.7622                 8.0525                 9.0094

                     16                     17                     18
                      A                      A                      A
 Frequencies --   1059.9414              1070.7131              1160.3921
 Red. masses --      1.4034                 1.4879                 1.5694
 Frc consts  --      0.9289                 1.0050                 1.2451
 IR Inten    --     19.5571                99.2033                65.2844

                     19                     20                     21
                      A                      A                      A
 Frequencies --   1205.2155              1298.5201              1402.8411
 Red. masses --      4.1056                 1.5667                15.5630
 Frc consts  --      3.5136                 1.5565                18.0451
 IR Inten    --      7.4606                13.7517                 1.8166

                     22                     23                     24
                      A                      A                      A
 Frequencies --   1412.0514              1453.9468              1521.0703
 Red. masses --      3.0615                 4.3325                 3.1437
 Frc consts  --      3.5965                 5.3962                 4.2854
 IR Inten    --     13.6361                42.9107                25.4398

                     25                     26                     27
                      A                      A                      A
 Frequencies --   1590.5128              2376.7604              3287.6472
 Red. masses --      3.2408                12.8460                 1.0952
 Frc consts  --      4.8303                42.7552                 6.9747
 IR Inten    --     20.0145              1541.0334                 1.9257

                     28                     29                     30
                      A                      A                      A
 Frequencies --   3305.9859              3320.9848              3648.2592
 Red. masses --      1.0955                 1.1084                 1.0841
 Frc consts  --      7.0543                 7.2026                 8.5013
 IR Inten    --      1.2224                 3.1538               296.9907

 - Thermochemistry -
 -------------------
 Temperature   298.150 Kelvin.  Pressure   1.00000 Atm.
 Atom     1 has atomic number  7 and mass  14.00307

 Molecular mass:   112.02728 amu.
 Principal axes and moments of inertia in atomic units:
                           1         2         3
     Eigenvalues --   333.292521630.607001963.89937
           X            1.00000  -0.00158  -0.00001
           Y            0.00158   1.00000   0.00002
           Z            0.00001  -0.00002   1.00000
 This molecule is an asymmetric top.
 Rotational symmetry number  1.
 Rotational temperatures (Kelvin)      0.25987     0.05312     0.04410
 Rotational constants (GHZ):           5.41489     1.10679     0.91896
 Zero-point vibrational energy     222696.1 (Joules/Mol)
                                   53.22566 (Kcal/Mol)
 Warning -- explicit consideration of   6 degrees of freedom as
           vibrations may cause significant error
 Vibrational temperatures:     41.55    60.29   105.96   159.25   222.06
          (Kelvin)            862.75   913.74   931.38   953.24  1009.31
                             1119.69  1280.63  1327.11  1331.58  1360.07
                             1525.02  1540.52  1669.55  1734.04  1868.28
                             2018.38  2031.63  2091.91  2188.48  2288.39
                             3419.63  4730.19  4756.58  4778.16  5249.03

 Zero-point correction=                           0.084820 (Hartree/Particle)
 Thermal correction to Energy=                    0.092617
 Thermal correction to Enthalpy=                  0.093562
 Thermal correction to Gibbs Free Energy=         0.049630
 Sum of electronic and zero-point Energies=           -414.563177
 Sum of electronic and thermal Energies=              -414.555380
 Sum of electronic and thermal Enthalpies=            -414.554435
 Sum of electronic and thermal Free Energies=         -414.598367

                     E (Thermal)             CV                S
                      KCal/Mol        Cal/Mol-Kelvin    Cal/Mol-Kelvin
 Total                   58.118             24.588             92.461
 Electronic               0.000              0.000              0.000
 Translational            0.889              2.981             40.057
 Rotational               0.889              2.981             28.458
 Vibrational             56.341             18.627             23.946
 Vibration     1          0.593              1.984              5.905
 Vibration     2          0.595              1.980              5.167
 Vibration     3          0.599              1.966              4.053
 Vibration     4          0.607              1.941              3.257
 Vibration     5          0.620              1.898              2.618
 Vibration     6          0.958              1.033              0.450

 Optimization completed.
    -- Stationary point found.
 Normal termination of Gaussian 16 at Fri Oct 27 05:13:49 2023.
