 Gaussian 16, Revision A.03,
 Gaussian 16:  ES64L-G16RevA.03 25-Dec-2016

 -----------------------------------------------------
 # opt freq 6-31+g(d,p) scrf=(smd,solvent=water) m062x
 -----------------------------------------------------

 -------------------
 Title Card Required
 -------------------
 Symbolic Z-matrix:
 Charge = -1 Multiplicity = 2

 SCF Done:  E(UM062X) =  -491.093871870     A.U. after   17 cycles
 SCF Done:  E(UM062X) =  -491.134809829     A.U. after   17 cycles
 SCF Done:  E(UM062X) =  -491.141446202     A.U. after   16 cycles
 SCF Done:  E(UM062X) =  -491.147897619     A.U. after   16 cycles
 SCF Done:  E(UM062X) =  -491.148583412     A.U. after   16 cycles
 SCF Done:  E(UM062X) =  -491.149029766     A.U. after   13 cycles
 SCF Done:  E(UM062X) =  -491.149489099     A.U. after   15 cycles
 SCF Done:  E(UM062X) =  -491.149948610     A.U. after   14 cycles
 SCF Done:  E(UM062X) =  -491.150678472     A.U. after   16 cycles
 SCF Done:  E(UM062X) =  -491.151580526     A.U. after   15 cycles
 SCF Done:  E(UM062X) =  -491.154805787     A.U. after   14 cycles
 SCF Done:  E(UM062X) =  -491.154811935     A.U. after   14 cycles
 SCF Done:  E(UM062X) =  -491.154824038     A.U. after   13 cycles
 SCF Done:  E(UM062X) =  -491.154833075     A.U. after   11 cycles
 SCF Done:  E(UM062X) =  -491.154835077     A.U. after   12 cycles
 SCF Done:  E(UM062X) =  -491.154836929     A.U. after   11 cycles
 SCF Done:  E(UM062X) =  -491.154838005     A.U. after   12 cycles
 SCF Done:  E(UM062X) =  -491.154838431     A.U. after   10 cycles
 SCF Done:  E(UM062X) =  -491.154838684     A.U. after   10 cycles
 Optimization completed.
    -- Stationary point found.
 Normal termination of Gaussian 16 at Sun Nov  5 23:38:20 2023.

 ----------------------------------------------------------------------
 #N Geom=AllCheck Guess=TCheck SCRF=Check GenChk UM062X/6-31+G(d,p) Fre
 q
 ----------------------------------------------------------------------

 Structure from the checkpoint file:  "/scratch/gongke2021/bizuo/Gau-22316.chk"
 -------------------
 Title Card Required
 -------------------
 Charge = -1 Multiplicity = 2

                         Standard orientation:
 ---------------------------------------------------------------------
 Center     Atomic      Atomic             Coordinates (Angstroms)
 Number     Number       Type             X           Y           Z
 ---------------------------------------------------------------------
      1          7           0       -0.377931   -0.979886   -0.441848
      2          7           0       -0.384291    0.343132    0.047004
      3          6           0       -1.703310    0.708952    0.332343
      4          6           0       -2.496476   -0.421348    0.168672
      5          6           0       -1.685930   -1.461303   -0.245024
      6          1           0       -1.936466    1.714730    0.639250
      7          1           0       -3.564028   -0.471639    0.331129
      8          6           0        0.715609    1.187406   -0.124765
      9          8           0        0.538592    2.401370    0.162802
     10          8           0        1.792273    0.647489   -0.529388
     11          1           0        0.392157   -1.528496   -0.053607
     12          1           0       -1.913200   -2.489414   -0.480680
     13          8           0        2.460404   -1.822434    0.383776
     14          1           0        2.316831   -0.892786    0.094107
     15          1           0        2.730750   -1.768757    1.308830
 ---------------------------------------------------------------------

 SCF Done:  E(UM062X) =  -491.154838684     A.U. after    1 cycles

 The electronic state is 2-A.
 Alpha  occ. eigenvalues --  -19.63527 -19.60820 -19.60334 -14.82580 -14.81112
 Alpha  occ. eigenvalues --  -10.68120 -10.56958 -10.56838 -10.54609  -1.19406
 Alpha  occ. eigenvalues --   -1.12884  -1.11714  -1.07666  -0.93558  -0.88631
 Alpha  occ. eigenvalues --   -0.73213  -0.67400  -0.66430  -0.60886  -0.56644
 Alpha  occ. eigenvalues --   -0.56130  -0.52585  -0.52436  -0.50182  -0.47547
 Alpha  occ. eigenvalues --   -0.46636  -0.45832  -0.45688  -0.39219  -0.36591
 Alpha  occ. eigenvalues --   -0.35857  -0.34283  -0.33382  -0.33267  -0.15846
 Alpha virt. eigenvalues --    0.02789   0.04463   0.04889   0.05451   0.06321
 Alpha virt. eigenvalues --    0.06999   0.07091   0.07897   0.09540   0.10865
 Alpha virt. eigenvalues --    0.11253   0.11585   0.12511   0.13417   0.15105

  Beta  occ. eigenvalues --  -19.63523 -19.60765 -19.60273 -14.82384 -14.80840
  Beta  occ. eigenvalues --  -10.68088 -10.56619 -10.56526 -10.54736  -1.18983
  Beta  occ. eigenvalues --   -1.12269  -1.11699  -1.07467  -0.92574  -0.87887
  Beta  occ. eigenvalues --   -0.72170  -0.66878  -0.65636  -0.60736  -0.56218
  Beta  occ. eigenvalues --   -0.54855  -0.52118  -0.51854  -0.49786  -0.47211
  Beta  occ. eigenvalues --   -0.46251  -0.45415  -0.44505  -0.39163  -0.36384
  Beta  occ. eigenvalues --   -0.34189  -0.33473  -0.31424  -0.31031
  Beta virt. eigenvalues --   -0.00558   0.02266   0.04270   0.04544   0.04705
  Beta virt. eigenvalues --    0.06178   0.06826   0.07376   0.08282   0.08805
  Beta virt. eigenvalues --    0.10055   0.10660   0.11674   0.12581   0.13185

 Mulliken charges and spin densities:
               1          2
     1  N   -0.306294   0.123759
     2  N   -0.232890   0.051373
     3  C   -0.360081   0.480827
     4  C    0.079764  -0.183526
     5  C   -0.394816   0.441214
     6  H    0.220085  -0.021661
     7  H    0.208120   0.005041
     8  C    0.836511   0.045689
     9  O   -0.776024   0.033358
    10  O   -0.846411   0.026446
    11  H    0.377652   0.015225
    12  H    0.211704  -0.019460
    13  O   -0.910085   0.001748
    14  H    0.465208   0.000178
    15  H    0.427556  -0.000211
 Sum of Mulliken charges =  -1.00000   1.00000

 Dipole moment (field-independent basis, Debye):
    X=             -6.4742    Y=             -6.7043    Z=              3.2864  Tot=              9.8825
 Quadrupole moment (field-independent basis, Debye-Ang):
   XX=            -64.2153   YY=            -76.2110   ZZ=            -56.9696
   XY=             -2.3896   XZ=              6.8005   YZ=             -2.3239

  Exact polarizability: 136.372  11.794 147.569  -8.895  11.198  81.096
 Approx polarizability: 103.385   3.044 115.082  -6.809   9.152  69.879

                      1                      2                      3
                      A                      A                      A
 Frequencies --     46.9943                88.3286                95.8186
 Red. masses --      5.5879                 5.1145                 7.7127
 Frc consts  --      0.0073                 0.0235                 0.0417
 IR Inten    --      2.7213                16.3724                13.4178

                      4                      5                      6
                      A                      A                      A
 Frequencies --    131.3667               176.7975               199.5105
 Red. masses --      5.2936                 6.9350                 1.1160
 Frc consts  --      0.0538                 0.1277                 0.0262
 IR Inten    --      7.4536                40.3497               217.7043

                      7                      8                      9
                      A                      A                      A
 Frequencies --    246.8430               350.8099               372.5943
 Red. masses --      6.6762                 2.7715                 1.2407
 Frc consts  --      0.2397                 0.2010                 0.1015
 IR Inten    --      5.7163                49.9082               154.5017

                     10                     11                     12
                      A                      A                      A
 Frequencies --    453.6461               529.7391               562.2289
 Red. masses --      9.2735                 1.2126                 3.2370
 Frc consts  --      1.1244                 0.2005                 0.6029
 IR Inten    --     10.8035                88.6026                30.3897

                     13                     14                     15
                      A                      A                      A
 Frequencies --    564.3517               580.5540               701.2695
 Red. masses --      5.1947                 1.1853                 1.6817
 Frc consts  --      0.9748                 0.2354                 0.4873
 IR Inten    --     44.1315               213.5313               502.8277

                     16                     17                     18
                      A                      A                      A
 Frequencies --    735.6030               766.9743               799.3888
 Red. masses --      1.7889                 7.8861                 3.0089
 Frc consts  --      0.5703                 2.7332                 1.1328
 IR Inten    --     79.2674                67.5802               123.8804

                     19                     20                     21
                      A                      A                      A
 Frequencies --    888.2685               893.1225               923.4500
 Red. masses --      1.3229                 3.5599                 2.7679
 Frc consts  --      0.6150                 1.6731                 1.3907
 IR Inten    --      6.9391                21.8497                34.7821

                     22                     23                     24
                      A                      A                      A
 Frequencies --   1026.5519              1108.7650              1123.1525
 Red. masses --      1.5003                 1.6767                 1.4475
 Frc consts  --      0.9315                 1.2145                 1.0758
 IR Inten    --    112.8218                74.7229                42.9123

                     25                     26                     27
                      A                      A                      A
 Frequencies --   1219.9458              1292.9707              1341.2724
 Red. masses --      5.5187                 2.3927                 4.4312
 Frc consts  --      4.8391                 2.3568                 4.6968
 IR Inten    --     69.2537                54.6505               601.9566

                     28                     29                     30
                      A                      A                      A
 Frequencies --   1358.4162              1434.3946              1466.6784
 Red. masses --      3.1631                 2.2662                 3.1763
 Frc consts  --      3.4390                 2.7471                 4.0257
 IR Inten    --   1370.1173               148.2515               202.0207

                     31                     32                     33
                      A                      A                      A
 Frequencies --   1529.4611              1581.9183              1599.1163
 Red. masses --      3.1782                 1.2830                 4.2915
 Frc consts  --      4.3803                 1.8917                 6.4657
 IR Inten    --     37.7228               151.4637              1409.4048

                     34                     35                     36
                      A                      A                      A
 Frequencies --   3289.2465              3314.9763              3339.5868
 Red. masses --      1.0943                 1.0970                 1.0992
 Frc consts  --      6.9758                 7.1023                 7.2229
 IR Inten    --      0.4526                13.5222                13.8513

                     37                     38                     39
                      A                      A                      A
 Frequencies --   3420.5315              3471.3932              3898.1049
 Red. masses --      1.0687                 1.0790                 1.0677
 Frc consts  --      7.3668                 7.6607                 9.5590
 IR Inten    --    883.7844               669.5069               159.3702

 - Thermochemistry -
 -------------------
 Temperature   298.150 Kelvin.  Pressure   1.00000 Atm.
 Atom     1 has atomic number  7 and mass  14.00307

 Molecular mass:   130.03784 amu.
 Principal axes and moments of inertia in atomic units:
                           1         2         3
     Eigenvalues --   886.585281268.912752047.98522
           X            0.99918  -0.03990   0.00687
           Y            0.03991   0.99920  -0.00132
           Z           -0.00681   0.00160   0.99998
 This molecule is an asymmetric top.
 Rotational symmetry number  1.
 Warning -- assumption of classical behavior for rotation
           may cause significant error
 Rotational temperatures (Kelvin)      0.09769     0.06826     0.04229
 Rotational constants (GHZ):           2.03561     1.42227     0.88123
 Zero-point vibrational energy     280668.7 (Joules/Mol)
                                   67.08143 (Kcal/Mol)
 Warning -- explicit consideration of  14 degrees of freedom as
           vibrations may cause significant error
 Vibrational temperatures:     67.61   127.09   137.86   189.01   254.37
          (Kelvin)            287.05   355.15   504.74   536.08   652.70
                              762.18   808.92   811.98   835.29  1008.97
                             1058.37  1103.50  1150.14  1278.02  1285.00
                             1328.64  1476.98  1595.27  1615.97  1755.23
                             1860.30  1929.79  1954.46  2063.77  2110.22
                             2200.55  2276.03  2300.77  4732.49  4769.51
                             4804.92  4921.38  4994.56  5608.50

 Zero-point correction=                           0.106901 (Hartree/Particle)
 Thermal correction to Energy=                    0.116784
 Thermal correction to Enthalpy=                  0.117728
 Thermal correction to Gibbs Free Energy=         0.070512
 Sum of electronic and zero-point Energies=           -491.047938
 Sum of electronic and thermal Energies=              -491.038054
 Sum of electronic and thermal Enthalpies=            -491.037110
 Sum of electronic and thermal Free Energies=         -491.084327

                     E (Thermal)             CV                S
                      KCal/Mol        Cal/Mol-Kelvin    Cal/Mol-Kelvin
 Total                   73.283             34.459             99.376
 Electronic               0.000              0.000              1.377
 Translational            0.889              2.981             40.501
 Rotational               0.889              2.981             29.223
 Vibrational             71.506             28.498             28.275
 Vibration     1          0.595              1.979              4.940
 Vibration     2          0.601              1.957              3.697
 Vibration     3          0.603              1.952              3.538
 Vibration     4          0.612              1.922              2.926
 Vibration     5          0.628              1.871              2.362
 Vibration     6          0.638              1.841              2.138
 Vibration     7          0.661              1.768              1.753
 Vibration     8          0.728              1.574              1.163
 Vibration     9          0.744              1.528              1.069
 Vibration    10          0.812              1.353              0.785
 Vibration    11          0.885              1.184              0.588
 Vibration    12          0.918              1.113              0.519
 Vibration    13          0.920              1.108              0.515
 Vibration    14          0.937              1.073              0.484

                           ! Non-Optimized Parameters !
 Normal termination of Gaussian 16 at Sun Nov  5 23:41:12 2023.
