 Gaussian 16, Revision A.03,
 Gaussian 16:  ES64L-G16RevA.03 25-Dec-2016

 -----------------------------------------------------
 # opt freq 6-31+g(d,p) scrf=(smd,solvent=water) m062x
 -----------------------------------------------------

 -------------------
 Title Card Required
 -------------------
 Symbolic Z-matrix:
 Charge = -1 Multiplicity = 2

 SCF Done:  E(UM062X) =  -414.624155681     A.U. after   19 cycles
 SCF Done:  E(UM062X) =  -414.676321378     A.U. after   17 cycles
 SCF Done:  E(UM062X) =  -414.716698537     A.U. after   19 cycles
 SCF Done:  E(UM062X) =  -414.722506683     A.U. after   18 cycles
 SCF Done:  E(UM062X) =  -414.702488019     A.U. after   18 cycles
 SCF Done:  E(UM062X) =  -414.727539242     A.U. after   16 cycles
 SCF Done:  E(UM062X) =  -414.730849760     A.U. after   17 cycles
 SCF Done:  E(UM062X) =  -414.732159313     A.U. after   14 cycles
 SCF Done:  E(UM062X) =  -414.732172051     A.U. after   14 cycles
 SCF Done:  E(UM062X) =  -414.732215682     A.U. after   12 cycles
 SCF Done:  E(UM062X) =  -414.690862111     A.U. after   16 cycles
 SCF Done:  E(UM062X) =  -414.734576138     A.U. after   17 cycles
 SCF Done:  E(UM062X) =  -414.735902452     A.U. after   16 cycles
 SCF Done:  E(UM062X) =  -414.736283340     A.U. after   16 cycles
 SCF Done:  E(UM062X) =  -414.736603479     A.U. after   14 cycles
 SCF Done:  E(UM062X) =  -414.736647409     A.U. after   13 cycles
 SCF Done:  E(UM062X) =  -414.736652912     A.U. after   12 cycles
 SCF Done:  E(UM062X) =  -414.736653997     A.U. after   11 cycles
 SCF Done:  E(UM062X) =  -414.736654583     A.U. after   12 cycles
 Optimization completed.
    -- Stationary point found.
 Normal termination of Gaussian 16 at Sun Nov  5 02:37:11 2023.

 ----------------------------------------------------------------------
 #N Geom=AllCheck Guess=TCheck SCRF=Check GenChk UM062X/6-31+G(d,p) Fre
 q
 ----------------------------------------------------------------------

 Structure from the checkpoint file:  "/scratch/gongke2021/bizuo/Gau-16314.chk"
 -------------------
 Title Card Required
 -------------------
 Charge = -1 Multiplicity = 2

                         Standard orientation:
 ---------------------------------------------------------------------
 Center     Atomic      Atomic             Coordinates (Angstroms)
 Number     Number       Type             X           Y           Z
 ---------------------------------------------------------------------
      1          7           0        0.720417    1.104113   -0.098424
      2          7           0       -0.057280   -0.061830    0.025123
      3          6           0        0.784456   -1.173460   -0.001854
      4          6           0        2.094150   -0.704338    0.004189
      5          6           0        2.059474    0.677678    0.008929
      6          1           0        0.375381   -2.169973   -0.000211
      7          1           0        2.983657   -1.318705   -0.001187
      8          6           0       -1.453543   -0.007500   -0.003917
      9          8           0       -2.049825   -1.122470    0.009301
     10          8           0       -1.970009    1.146374   -0.016793
     11          1           0        0.397681    1.838370    0.530930
     12          1           0        2.852771    1.408818   -0.000572
 ---------------------------------------------------------------------

 SCF Done:  E(UM062X) =  -414.736654583     A.U. after    1 cycles

 The electronic state is 2-A.
 Alpha  occ. eigenvalues --  -19.60121 -19.59971 -14.82398 -14.81318 -10.67671
 Alpha  occ. eigenvalues --  -10.56930 -10.56756 -10.54587  -1.19076  -1.12743
 Alpha  occ. eigenvalues --   -1.07208  -0.93404  -0.88626  -0.73074  -0.67434
 Alpha  occ. eigenvalues --   -0.66386  -0.57243  -0.56013  -0.52351  -0.52189
 Alpha  occ. eigenvalues --   -0.49651  -0.47354  -0.46217  -0.45661  -0.36050
 Alpha  occ. eigenvalues --   -0.35612  -0.33913  -0.33194  -0.32953  -0.15676
 Alpha virt. eigenvalues --    0.02647   0.04494   0.04856   0.05536   0.06298
 Alpha virt. eigenvalues --    0.07011   0.07121   0.07841   0.10037   0.10798
 Alpha virt. eigenvalues --    0.12006   0.12113   0.12457   0.13527   0.15937

  Beta  occ. eigenvalues --  -19.60058 -19.59910 -14.82181 -14.81039 -10.67647
  Beta  occ. eigenvalues --  -10.56600 -10.56443 -10.54713  -1.18607  -1.12142
  Beta  occ. eigenvalues --   -1.06994  -0.92394  -0.87889  -0.72041  -0.66886
  Beta  occ. eigenvalues --   -0.65589  -0.56741  -0.54656  -0.51849  -0.51608
  Beta  occ. eigenvalues --   -0.49197  -0.46973  -0.45520  -0.44511  -0.35844
  Beta  occ. eigenvalues --   -0.33666  -0.32952  -0.31445  -0.30774
  Beta virt. eigenvalues --   -0.00402   0.02178   0.04247   0.04521   0.04869
  Beta virt. eigenvalues --    0.06128   0.06814   0.07397   0.08398   0.09244
  Beta virt. eigenvalues --    0.10525   0.10657   0.11427   0.13195   0.13314

 Mulliken charges and spin densities:
               1          2
     1  N   -0.333169   0.121434
     2  N   -0.204570   0.068696
     3  C   -0.342199   0.471624
     4  C    0.076855  -0.186500
     5  C   -0.396773   0.437996
     6  H    0.220118  -0.021175
     7  H    0.207917   0.005027
     8  C    0.804133   0.041761
     9  O   -0.785183   0.032501
    10  O   -0.834886   0.031294
    11  H    0.377134   0.016567
    12  H    0.210623  -0.019227
 Sum of Mulliken charges =  -1.00000   1.00000

 Dipole moment (field-independent basis, Debye):
    X=             11.4971    Y=              0.7043    Z=              1.2811  Tot=             11.5897
 Quadrupole moment (field-independent basis, Debye-Ang):
   XX=            -70.8285   YY=            -52.6463   ZZ=            -51.2736
   XY=              0.5143   XZ=              0.3426   YZ=              2.6619

  Exact polarizability: 143.537   8.235 123.921   1.378   0.477  66.084
 Approx polarizability: 103.134   5.635 102.183   0.900   0.122  57.130

                      1                      2                      3
                      A                      A                      A
 Frequencies --     73.0169               134.3601               234.4609
 Red. masses --      6.1643                 6.2717                 6.2654
 Frc consts  --      0.0194                 0.0667                 0.2029
 IR Inten    --      4.7283                 0.1882                 0.7438

                      4                      5                      6
                      A                      A                      A
 Frequencies --    332.2320               448.5099               528.6720
 Red. masses --      3.6478                 9.1871                 1.2023
 Frc consts  --      0.2372                 1.0889                 0.1980
 IR Inten    --     28.1559                14.3233                65.5091

                      7                      8                      9
                      A                      A                      A
 Frequencies --    555.1308               565.4015               571.0441
 Red. masses --      3.3850                 1.4897                 2.9368
 Frc consts  --      0.6146                 0.2806                 0.5642
 IR Inten    --     77.0280               149.5222                48.8531

                     10                     11                     12
                      A                      A                      A
 Frequencies --    688.9265               760.6132               780.5441
 Red. masses --      2.2258                12.4841                 6.6606
 Frc consts  --      0.6224                 4.2553                 2.3909
 IR Inten    --    258.0634                67.1835                89.1842

                     13                     14                     15
                      A                      A                      A
 Frequencies --    889.5128               893.4003               925.3414
 Red. masses --      2.5055                 1.6095                 2.8593
 Frc consts  --      1.1680                 0.7569                 1.4425
 IR Inten    --      4.6392                21.7150                29.5697

                     16                     17                     18
                      A                      A                      A
 Frequencies --   1019.8231              1103.0537              1111.8705
 Red. masses --      1.5957                 1.6054                 1.4150
 Frc consts  --      0.9778                 1.1509                 1.0306
 IR Inten    --    158.0119                97.2789                14.5952

                     19                     20                     21
                      A                      A                      A
 Frequencies --   1221.9113              1289.4558              1344.2416
 Red. masses --      5.4461                 1.7684                 2.7877
 Frc consts  --      4.7909                 1.7323                 2.9679
 IR Inten    --     54.5871                48.6052               115.0377

                     22                     23                     24
                      A                      A                      A
 Frequencies --   1348.3000              1421.2531              1466.1721
 Red. masses --      8.9808                 2.2578                 4.5295
 Frc consts  --      9.6192                 2.6870                 5.7368
 IR Inten    --   1928.1897                41.6684               287.7081

                     25                     26                     27
                      A                      A                      A
 Frequencies --   1526.4916              1595.5164              3289.5110
 Red. masses --      3.4086                12.5260                 1.0944
 Frc consts  --      4.6797                18.7874                 6.9774
 IR Inten    --     64.9139              1385.8261                 0.3600

                     28                     29                     30
                      A                      A                      A
 Frequencies --   3316.2253              3334.9626              3517.3487
 Red. masses --      1.0958                 1.1002                 1.0788
 Frc consts  --      7.1005                 7.2097                 7.8639
 IR Inten    --     16.6748                12.2090                98.0982

 - Thermochemistry -
 -------------------
 Temperature   298.150 Kelvin.  Pressure   1.00000 Atm.
 Atom     1 has atomic number  7 and mass  14.00307

 Molecular mass:   112.02728 amu.
 Principal axes and moments of inertia in atomic units:
                           1         2         3
     Eigenvalues --   352.189271036.946031386.10973
           X            1.00000  -0.00009   0.00081
           Y            0.00008   0.99995   0.00991
           Z           -0.00081  -0.00991   0.99995
 This molecule is an asymmetric top.
 Rotational symmetry number  1.
 Rotational temperatures (Kelvin)      0.24593     0.08353     0.06249
 Rotational constants (GHZ):           5.12435     1.74044     1.30202
 Zero-point vibrational energy     217046.3 (Joules/Mol)
                                   51.87530 (Kcal/Mol)
 Warning -- explicit consideration of   9 degrees of freedom as
           vibrations may cause significant error
 Vibrational temperatures:    105.06   193.31   337.34   478.01   645.31
          (Kelvin)            760.64   798.71   813.49   821.61   991.21
                             1094.35  1123.03  1279.81  1285.40  1331.36
                             1467.30  1587.05  1599.73  1758.06  1855.24
                             1934.06  1939.90  2044.87  2109.49  2196.28
                             2295.59  4732.87  4771.31  4798.27  5060.68

 Zero-point correction=                           0.082669 (Hartree/Particle)
 Thermal correction to Energy=                    0.089462
 Thermal correction to Enthalpy=                  0.090407
 Thermal correction to Gibbs Free Energy=         0.050636
 Sum of electronic and zero-point Energies=           -414.653986
 Sum of electronic and thermal Energies=              -414.647192
 Sum of electronic and thermal Enthalpies=            -414.646248
 Sum of electronic and thermal Free Energies=         -414.686019

                     E (Thermal)             CV                S
                      KCal/Mol        Cal/Mol-Kelvin    Cal/Mol-Kelvin
 Total                   56.139             24.674             83.705
 Electronic               0.000              0.000              1.377
 Translational            0.889              2.981             40.057
 Rotational               0.889              2.981             27.717
 Vibrational             54.361             18.712             14.553
 Vibration     1          0.599              1.967              4.070
 Vibration     2          0.613              1.919              2.883
 Vibration     3          0.654              1.788              1.845
 Vibration     4          0.714              1.611              1.249
 Vibration     5          0.808              1.364              0.800
 Vibration     6          0.884              1.187              0.590
 Vibration     7          0.911              1.128              0.534
 Vibration     8          0.921              1.106              0.513
 Vibration     9          0.927              1.094              0.502

                           ! Non-Optimized Parameters !
 Normal termination of Gaussian 16 at Sun Nov  5 02:39:22 2023.
