 Gaussian 16, Revision A.03,
 Gaussian 16:  ES64L-G16RevA.03 25-Dec-2016

 -----------------------------------------------------
 # opt freq 6-31+g(d,p) scrf=(smd,solvent=water) m062x
 -----------------------------------------------------

 -------------------
 Title Card Required
 -------------------
 Symbolic Z-matrix:
 Charge = -1 Multiplicity = 2

 SCF Done:  E(UM062X) =  -491.122682797     A.U. after   19 cycles
 SCF Done:  E(UM062X) =  -491.125232623     A.U. after   16 cycles
 SCF Done:  E(UM062X) =  -491.128163089     A.U. after   16 cycles
 SCF Done:  E(UM062X) =  -491.133785134     A.U. after   14 cycles
 SCF Done:  E(UM062X) =  -491.134986893     A.U. after   14 cycles
 SCF Done:  E(UM062X) =  -491.134326132     A.U. after   16 cycles
 SCF Done:  E(UM062X) =  -491.136131243     A.U. after   15 cycles
 SCF Done:  E(UM062X) =  -491.136499612     A.U. after   15 cycles
 SCF Done:  E(UM062X) =  -491.137353055     A.U. after   15 cycles
 SCF Done:  E(UM062X) =  -491.137594629     A.U. after   15 cycles
 SCF Done:  E(UM062X) =  -491.138327935     A.U. after   12 cycles
 SCF Done:  E(UM062X) =  -491.138330996     A.U. after   11 cycles
 SCF Done:  E(UM062X) =  -491.138340083     A.U. after   12 cycles
 SCF Done:  E(UM062X) =  -491.138351459     A.U. after   13 cycles
 SCF Done:  E(UM062X) =  -491.138360018     A.U. after   12 cycles
 SCF Done:  E(UM062X) =  -491.138361986     A.U. after   12 cycles
 SCF Done:  E(UM062X) =  -491.138365098     A.U. after   11 cycles
 SCF Done:  E(UM062X) =  -491.138365887     A.U. after   10 cycles
 SCF Done:  E(UM062X) =  -491.138370362     A.U. after   12 cycles
 Optimization completed.
    -- Stationary point found.
 Normal termination of Gaussian 16 at Mon Nov  6 00:25:14 2023.

 ----------------------------------------------------------------------
 #N Geom=AllCheck Guess=TCheck SCRF=Check GenChk UM062X/6-31+G(d,p) Fre
 q
 ----------------------------------------------------------------------

 Structure from the checkpoint file:  "/scratch/gongke2021/bizuo-PC/Gau-14652.chk"
 -------------------
 Title Card Required
 -------------------
 Charge = -1 Multiplicity = 2

                         Standard orientation:
 ---------------------------------------------------------------------
 Center     Atomic      Atomic             Coordinates (Angstroms)
 Number     Number       Type             X           Y           Z
 ---------------------------------------------------------------------
      1          7           0       -0.103700   -1.007036   -0.108910
      2          7           0       -0.447665    0.335985   -0.010463
      3          6           0       -1.836620    0.493377    0.077667
      4          6           0       -2.372852   -0.796125    0.037987
      5          6           0       -1.295252   -1.667289   -0.072805
      6          1           0       -2.278716    1.472251    0.158352
      7          1           0       -3.420943   -1.055764    0.084583
      8          6           0        0.452745    1.340126   -0.013550
      9          8           0        0.119966    2.549604    0.052756
     10          8           0        1.772025    1.017629   -0.109616
     11          1           0        1.489922   -1.681151    0.014370
     12          1           0       -1.297579   -2.747350   -0.130395
     13          8           0        2.482744   -1.765759    0.016703
     14          1           0        1.951576    0.056381   -0.071675
     15          1           0        2.729290   -1.979337    0.925841
 ---------------------------------------------------------------------

 SCF Done:  E(UM062X) =  -491.138370362     A.U. after    1 cycles

 The electronic state is 2-A.
 Alpha  occ. eigenvalues --  -19.67294 -19.63538 -19.61195 -14.83795 -14.76719
 Alpha  occ. eigenvalues --  -10.68183 -10.55633 -10.55366 -10.53099  -1.21760
 Alpha  occ. eigenvalues --   -1.13254  -1.11905  -1.10775  -0.92804  -0.86256
 Alpha  occ. eigenvalues --   -0.73996  -0.67794  -0.65982  -0.62333  -0.58386
 Alpha  occ. eigenvalues --   -0.55619  -0.53646  -0.51783  -0.48133  -0.47321
 Alpha  occ. eigenvalues --   -0.47092  -0.45877  -0.44429  -0.39681  -0.39296
 Alpha  occ. eigenvalues --   -0.36652  -0.35933  -0.32774  -0.30871  -0.13159
 Alpha virt. eigenvalues --    0.02753   0.04512   0.04895   0.05589   0.06555
 Alpha virt. eigenvalues --    0.07093   0.07854   0.08079   0.10429   0.10540
 Alpha virt. eigenvalues --    0.10946   0.11991   0.12399   0.13309   0.15319

  Beta  occ. eigenvalues --  -19.67220 -19.63539 -19.60967 -14.83881 -14.76383
  Beta  occ. eigenvalues --  -10.67952 -10.55342 -10.55260 -10.53137  -1.21280
  Beta  occ. eigenvalues --   -1.12846  -1.11803  -1.10216  -0.92062  -0.85500
  Beta  occ. eigenvalues --   -0.73169  -0.67405  -0.65634  -0.61782  -0.58132
  Beta  occ. eigenvalues --   -0.54165  -0.53049  -0.51434  -0.47714  -0.47133
  Beta  occ. eigenvalues --   -0.45968  -0.45526  -0.44021  -0.39501  -0.37520
  Beta  occ. eigenvalues --   -0.35903  -0.35623  -0.30962  -0.28009
  Beta virt. eigenvalues --    0.01017   0.02183   0.04131   0.04504   0.04814
  Beta virt. eigenvalues --    0.06181   0.06706   0.07369   0.08753   0.09614
  Beta virt. eigenvalues --    0.10472   0.10575   0.11598   0.12720   0.13090

 Mulliken charges and spin densities:
               1          2
     1  N   -0.532038   0.229676
     2  N   -0.124835  -0.089962
     3  C   -0.350974   0.387473
     4  C   -0.022500  -0.037278
     5  C   -0.345554   0.163572
     6  H    0.209567  -0.018817
     7  H    0.192568   0.000201
     8  C    0.718900   0.251253
     9  O   -0.748990   0.104739
    10  O   -0.637558   0.018370
    11  H    0.468175  -0.003457
    12  H    0.188261  -0.008574
    13  O   -0.885715   0.003673
    14  H    0.437206  -0.000381
    15  H    0.433488  -0.000488
 Sum of Mulliken charges =  -1.00000   1.00000

 Dipole moment (field-independent basis, Debye):
    X=             -2.3238    Y=             -6.5955    Z=              2.2596  Tot=              7.3490
 Quadrupole moment (field-independent basis, Debye-Ang):
   XX=            -64.1132   YY=            -77.9927   ZZ=            -57.6251
   XY=             -1.6574   XZ=              5.9059   YZ=             -4.4233

  Exact polarizability: 153.478  22.722 175.889  -1.742   2.433  77.911
 Approx polarizability: 114.907   8.013 127.888  -1.406   1.874  66.200

                      1                      2                      3
                      A                      A                      A
 Frequencies --     27.8879                91.1155               137.6385
 Red. masses --      5.9430                 7.5861                 4.6276
 Frc consts  --      0.0027                 0.0371                 0.0517
 IR Inten    --      3.1816                14.1126                23.6721

                      4                      5                      6
                      A                      A                      A
 Frequencies --    155.9133               164.7829               241.7029
 Red. masses --      5.6111                 5.4653                 1.1617
 Frc consts  --      0.0804                 0.0874                 0.0400
 IR Inten    --      5.7820                29.6290               208.5818

                      7                      8                      9
                      A                      A                      A
 Frequencies --    252.4808               392.1680               422.2468
 Red. masses --      6.3934                 1.2193                 2.7998
 Frc consts  --      0.2401                 0.1105                 0.2941
 IR Inten    --     22.8045               112.5514               244.7370

                     10                     11                     12
                      A                      A                      A
 Frequencies --    454.4220               480.2274               526.9105
 Red. masses --      5.3412                 1.4368                 1.3586
 Frc consts  --      0.6498                 0.1952                 0.2222
 IR Inten    --      5.3410                 6.8253               232.6980

                     13                     14                     15
                      A                      A                      A
 Frequencies --    560.2165               596.8535               602.6046
 Red. masses --      6.5360                 4.0425                 3.7239
 Frc consts  --      1.2086                 0.8485                 0.7967
 IR Inten    --     29.7798                14.7958                 6.7517

                     16                     17                     18
                      A                      A                      A
 Frequencies --    704.3589               725.9850               850.0283
 Red. masses --      6.6592                 1.2108                 1.2773
 Frc consts  --      1.9465                 0.3760                 0.5438
 IR Inten    --     99.5022               124.9769                 1.0696

                     19                     20                     21
                      A                      A                      A
 Frequencies --    885.8764               900.8586               918.4117
 Red. masses --      1.2584                 3.9428                 3.7752
 Frc consts  --      0.5819                 1.8852                 1.8761
 IR Inten    --    274.6049               128.3129               137.2737

                     22                     23                     24
                      A                      A                      A
 Frequencies --   1023.0473              1059.8941              1122.4245
 Red. masses --      1.7639                 2.4738                 1.7307
 Frc consts  --      1.0877                 1.6373                 1.2846
 IR Inten    --    272.9456               334.0813               169.2300

                     25                     26                     27
                      A                      A                      A
 Frequencies --   1195.2969              1246.0355              1274.6127
 Red. masses --      1.7012                 1.4023                 5.3496
 Frc consts  --      1.4321                 1.2827                 5.1207
 IR Inten    --    145.3412               427.6505                88.7717

                     28                     29                     30
                      A                      A                      A
 Frequencies --   1351.3978              1447.0656              1464.4600
 Red. masses --      2.8789                 4.8865                 4.6374
 Frc consts  --      3.0977                 6.0287                 5.8598
 IR Inten    --    201.7262                52.1305               310.6600

                     31                     32                     33
                      A                      A                      A
 Frequencies --   1520.3035              1573.2889              1659.5207
 Red. masses --      4.4726                 1.0742                 8.5261
 Frc consts  --      6.0907                 1.5666                13.8346
 IR Inten    --     10.0498               131.3238              1478.3578

                     34                     35                     36
                      A                      A                      A
 Frequencies --   3156.5513              3276.9599              3295.0529
 Red. masses --      1.0720                 1.0898                 1.1016
 Frc consts  --      6.2933                 6.8950                 7.0467
 IR Inten    --   1999.4497                 1.0331                 3.8111

                     37                     38                     39
                      A                      A                      A
 Frequencies --   3337.6833              3609.0284              3888.3958
 Red. masses --      1.0980                 1.0679                 1.0665
 Frc consts  --      7.2068                 8.1956                 9.5005
 IR Inten    --     10.7834               900.8307               151.5267

 - Thermochemistry -
 -------------------
 Temperature   298.150 Kelvin.  Pressure   1.00000 Atm.
 Atom     1 has atomic number  7 and mass  14.00307

 Molecular mass:   130.03784 amu.
 Principal axes and moments of inertia in atomic units:
                           1         2         3
     Eigenvalues --   964.935241131.107672085.63801
           X            0.99642  -0.08431   0.00614
           Y            0.08435   0.99642  -0.00529
           Z           -0.00568   0.00579   0.99997
 This molecule is an asymmetric top.
 Rotational symmetry number  1.
 Warning -- assumption of classical behavior for rotation
           may cause significant error
 Rotational temperatures (Kelvin)      0.08976     0.07657     0.04153
 Rotational constants (GHZ):           1.87032     1.59555     0.86532
 Zero-point vibrational energy     278692.3 (Joules/Mol)
                                   66.60905 (Kcal/Mol)
 Warning -- explicit consideration of  15 degrees of freedom as
           vibrations may cause significant error
 Vibrational temperatures:     40.12   131.09   198.03   224.32   237.09
          (Kelvin)            347.76   363.26   564.24   607.52   653.81
                              690.94   758.11   806.03   858.74   867.01
                             1013.42  1044.53  1223.00  1274.58  1296.13
                             1321.39  1471.94  1524.95  1614.92  1719.77
                             1792.77  1833.88  1944.36  2082.00  2107.03
                             2187.38  2263.61  2387.68  4541.57  4714.81
                             4740.85  4802.18  5192.59  5594.53

 Zero-point correction=                           0.106148 (Hartree/Particle)
 Thermal correction to Energy=                    0.115926
 Thermal correction to Enthalpy=                  0.116870
 Thermal correction to Gibbs Free Energy=         0.069793
 Sum of electronic and zero-point Energies=           -491.032222
 Sum of electronic and thermal Energies=              -491.022445
 Sum of electronic and thermal Enthalpies=            -491.021501
 Sum of electronic and thermal Free Energies=         -491.068577

                     E (Thermal)             CV                S
                      KCal/Mol        Cal/Mol-Kelvin    Cal/Mol-Kelvin
 Total                   72.744             34.673             99.081
 Electronic               0.000              0.000              1.377
 Translational            0.889              2.981             40.501
 Rotational               0.889              2.981             29.211
 Vibrational             70.967             28.711             27.992
 Vibration     1          0.593              1.984              5.974
 Vibration     2          0.602              1.955              3.636
 Vibration     3          0.614              1.916              2.836
 Vibration     4          0.620              1.896              2.599
 Vibration     5          0.623              1.886              2.494
 Vibration     6          0.658              1.776              1.790
 Vibration     7          0.664              1.759              1.713
 Vibration     8          0.760              1.487              0.992
 Vibration     9          0.785              1.422              0.884
 Vibration    10          0.813              1.351              0.783
 Vibration    11          0.837              1.294              0.709
 Vibration    12          0.882              1.190              0.594
 Vibration    13          0.916              1.117              0.523
 Vibration    14          0.955              1.038              0.455
 Vibration    15          0.961              1.026              0.445

                           ! Non-Optimized Parameters !
 Normal termination of Gaussian 16 at Mon Nov  6 00:28:08 2023.
