 Gaussian 16, Revision A.03,
 Gaussian 16:  ES64L-G16RevA.03 25-Dec-2016

 ----------------------------------------------------------------------
 # opt=(calcfc,ts,noeigentest) freq 6-31+g(d,p) scrf=(smd,solvent=water
 ) integral=grid=ultrafine m062x
 ----------------------------------------------------------------------

 -------------------
 Title Card Required
 -------------------
 Symbolic Z-matrix:
 Charge = -1 Multiplicity = 2

 SCF Done:  E(UM062X) =  -491.111905973     A.U. after   18 cycles
 SCF Done:  E(UM062X) =  -491.122806578     A.U. after   17 cycles
 SCF Done:  E(UM062X) =  -491.127212668     A.U. after   16 cycles
 SCF Done:  E(UM062X) =  -491.130511781     A.U. after   17 cycles
 SCF Done:  E(UM062X) =  -491.131289233     A.U. after   16 cycles
 SCF Done:  E(UM062X) =  -491.131549931     A.U. after   15 cycles
 SCF Done:  E(UM062X) =  -491.131611561     A.U. after   15 cycles
 SCF Done:  E(UM062X) =  -491.132059608     A.U. after   16 cycles
 SCF Done:  E(UM062X) =  -491.131991827     A.U. after   16 cycles
 SCF Done:  E(UM062X) =  -491.132441078     A.U. after   15 cycles
 SCF Done:  E(UM062X) =  -491.132624736     A.U. after   13 cycles
 SCF Done:  E(UM062X) =  -491.132658114     A.U. after   13 cycles
 SCF Done:  E(UM062X) =  -491.132659413     A.U. after   12 cycles
 SCF Done:  E(UM062X) =  -491.132659724     A.U. after   11 cycles
 SCF Done:  E(UM062X) =  -491.132659652     A.U. after   10 cycles
 SCF Done:  E(UM062X) =  -491.132659738     A.U. after   10 cycles
 SCF Done:  E(UM062X) =  -491.132642619     A.U. after   12 cycles
 SCF Done:  E(UM062X) =  -491.132659580     A.U. after   12 cycles
 SCF Done:  E(UM062X) =  -491.132659698     A.U. after   10 cycles
 Optimization completed.
    -- Stationary point found.
 Normal termination of Gaussian 16 at Mon Nov  6 00:09:54 2023.

 ----------------------------------------------------------------------
 #N Geom=AllCheck Guess=TCheck SCRF=Check GenChk UM062X/6-31+G(d,p) Fre
 q
 ----------------------------------------------------------------------

 Structure from the checkpoint file:  "/scratch/gongke2021/bizuo-TS/Gau-31685.chk"
 -------------------
 Title Card Required
 -------------------
 Charge = -1 Multiplicity = 2

                         Standard orientation:
 ---------------------------------------------------------------------
 Center     Atomic      Atomic             Coordinates (Angstroms)
 Number     Number       Type             X           Y           Z
 ---------------------------------------------------------------------
      1          7           0       -0.497682   -0.939497   -0.313872
      2          7           0       -0.256127    0.410007   -0.038975
      3          6           0       -1.471747    1.071494    0.186588
      4          6           0       -2.471121    0.100776    0.110879
      5          6           0       -1.854623   -1.107608   -0.169674
      6          1           0       -1.491921    2.128121    0.393111
      7          1           0       -3.530542    0.268351    0.243462
      8          6           0        0.977471    0.981176   -0.055908
      9          8           0        1.104620    2.217838    0.100203
     10          8           0        2.031576    0.193761   -0.272628
     11          1           0        0.432097   -1.693536    0.002990
     12          1           0       -2.282478   -2.091022   -0.299445
     13          8           0        1.555700   -2.161561    0.239771
     14          1           0        1.898046   -0.844922   -0.027101
     15          1           0        1.636415   -2.335893    1.186832
 ---------------------------------------------------------------------

 SCF Done:  E(UM062X) =  -491.132659698     A.U. after    1 cycles

 The electronic state is 2-A.
 Alpha  occ. eigenvalues --  -19.64893 -19.61312 -19.61033 -14.83894 -14.78304
 Alpha  occ. eigenvalues --  -10.68939 -10.56308 -10.56295 -10.53894  -1.21278
 Alpha  occ. eigenvalues --   -1.13290  -1.11172  -1.07305  -0.93463  -0.87503
 Alpha  occ. eigenvalues --   -0.74204  -0.67233  -0.66245  -0.64751  -0.56351
 Alpha  occ. eigenvalues --   -0.54965  -0.54381  -0.52071  -0.49634  -0.47567
 Alpha  occ. eigenvalues --   -0.46235  -0.45649  -0.44390  -0.38826  -0.37307
 Alpha  occ. eigenvalues --   -0.36174  -0.34951  -0.33509  -0.32040  -0.14253
 Alpha virt. eigenvalues --    0.02837   0.04566   0.04898   0.05568   0.06462
 Alpha virt. eigenvalues --    0.07044   0.07350   0.08034   0.09997   0.10379
 Alpha virt. eigenvalues --    0.10973   0.11984   0.12350   0.13599   0.15428

  Beta  occ. eigenvalues --  -19.64827 -19.61141 -19.61024 -14.83887 -14.77968
  Beta  occ. eigenvalues --  -10.68808 -10.56127 -10.55972 -10.53974  -1.20831
  Beta  occ. eigenvalues --   -1.12734  -1.10772  -1.07195  -0.92643  -0.86723
  Beta  occ. eigenvalues --   -0.73339  -0.66829  -0.66003  -0.63934  -0.55339
  Beta  occ. eigenvalues --   -0.54224  -0.53801  -0.51783  -0.49033  -0.46923
  Beta  occ. eigenvalues --   -0.45729  -0.44984  -0.43970  -0.38083  -0.36498
  Beta  occ. eigenvalues --   -0.35523  -0.34760  -0.31378  -0.29212
  Beta virt. eigenvalues --    0.00067   0.02246   0.04228   0.04557   0.04736
  Beta virt. eigenvalues --    0.06182   0.06731   0.07512   0.08378   0.09192
  Beta virt. eigenvalues --    0.10336   0.10628   0.11624   0.12548   0.13196

 Mulliken charges and spin densities:
               1          2
     1  N   -0.408102   0.191664
     2  N   -0.201344  -0.044304
     3  C   -0.375653   0.437847
     4  C    0.046153  -0.110505
     5  C   -0.353529   0.281902
     6  H    0.215691  -0.020655
     7  H    0.201009   0.002570
     8  C    0.762271   0.164053
     9  O   -0.737076   0.082496
    10  O   -0.721449   0.020432
    11  H    0.490537   0.000093
    12  H    0.202899  -0.012869
    13  O   -1.072502   0.007721
    14  H    0.514733   0.000459
    15  H    0.436363  -0.000903
 Sum of Mulliken charges =  -1.00000   1.00000

 Dipole moment (field-independent basis, Debye):
    X=             -6.6578    Y=             -3.8740    Z=              2.4833  Tot=              8.0932
 Quadrupole moment (field-independent basis, Debye-Ang):
   XX=            -67.9189   YY=            -75.2482   ZZ=            -56.7306
   XY=             -3.4824   XZ=              3.1366   YZ=             -4.1782

  Exact polarizability: 164.845  18.690 157.092  -2.469   6.738  79.412
 Approx polarizability: 119.324   8.743 121.387  -2.184   5.593  68.236

 ******    1 imaginary frequencies (negative Signs) ******

                      1                      2                      3
                      A                      A                      A
 Frequencies --  -1057.4362                64.4540               139.8599
 Red. masses --      1.0847                 5.7138                 6.0218
 Frc consts  --      0.7146                 0.0140                 0.0694
 IR Inten    --   4262.6527                 5.4258                 3.2178

                      4                      5                      6
                      A                      A                      A
 Frequencies --    148.6771               239.9501               363.8572
 Red. masses --      5.7648                 6.3670                 7.8628
 Frc consts  --      0.0751                 0.2160                 0.6133
 IR Inten    --      3.9540                69.3473               450.0001

                      7                      8                      9
                      A                      A                      A
 Frequencies --    409.4841               449.0756               470.4708
 Red. masses --      6.6850                 3.2534                 1.2123
 Frc consts  --      0.6604                 0.3866                 0.1581
 IR Inten    --      7.2977               239.4849               227.1609

                     10                     11                     12
                      A                      A                      A
 Frequencies --    490.9157               520.0021               548.8925
 Red. masses --      1.4921                 5.0211                 1.2135
 Frc consts  --      0.2119                 0.7999                 0.2154
 IR Inten    --     56.7097               255.6816               197.2898

                     13                     14                     15
                      A                      A                      A
 Frequencies --    571.7421               596.3983               660.5115
 Red. masses --      5.1719                 3.4668                11.5786
 Frc consts  --      0.9961                 0.7265                 2.9762
 IR Inten    --      7.2537                26.6771                38.8233

                     16                     17                     18
                      A                      A                      A
 Frequencies --    690.4675               760.1536               865.1078
 Red. masses --      1.2653                 7.0135                 1.2635
 Frc consts  --      0.3554                 2.3877                 0.5572
 IR Inten    --    125.5511               280.6191                 5.6340

                     19                     20                     21
                      A                      A                      A
 Frequencies --    902.7449               942.1337              1040.6146
 Red. masses --      4.7456                 2.8925                 1.5323
 Frc consts  --      2.2786                 1.5127                 0.9777
 IR Inten    --     22.2212                33.7286               134.5299

                     22                     23                     24
                      A                      A                      A
 Frequencies --   1111.3816              1135.6336              1188.8461
 Red. masses --      2.1086                 2.6760                 1.7143
 Frc consts  --      1.5345                 2.0334                 1.4275
 IR Inten    --    218.4844               603.1965                83.7681

                     25                     26                     27
                      A                      A                      A
 Frequencies --   1206.8236              1292.5783              1339.4074
 Red. masses --      1.1376                 6.6636                 1.8598
 Frc consts  --      0.9762                 6.5596                 1.9658
 IR Inten    --    263.2459                39.6201               396.1641

                     28                     29                     30
                      A                      A                      A
 Frequencies --   1401.2562              1434.6906              1435.2893
 Red. masses --      1.3481                 1.7813                 2.5715
 Frc consts  --      1.5596                 2.1603                 3.1212
 IR Inten    --    200.5841               993.2295               212.3929

                     31                     32                     33
                      A                      A                      A
 Frequencies --   1496.0681              1531.1642              1594.8043
 Red. masses --      3.6552                 3.7041                 2.8738
 Frc consts  --      4.8201                 5.1166                 4.3065
 IR Inten    --    337.9852                22.6709              2311.7904

                     34                     35                     36
                      A                      A                      A
 Frequencies --   1684.1230              1941.8138              3286.6657
 Red. masses --      1.3762                 1.1478                 1.0912
 Frc consts  --      2.2997                 2.5500                 6.9450
 IR Inten    --    457.0924              3478.7521                 3.3453

                     37                     38                     39
                      A                      A                      A
 Frequencies --   3304.4894              3340.4497              3880.3769
 Red. masses --      1.1008                 1.0983                 1.0661
 Frc consts  --      7.0824                 7.2207                 9.4581
 IR Inten    --      2.2703                10.3328                87.0416

 - Thermochemistry -
 -------------------
 Temperature   298.150 Kelvin.  Pressure   1.00000 Atm.
 Atom     1 has atomic number  7 and mass  14.00307

 Molecular mass:   130.03784 amu.
 Principal axes and moments of inertia in atomic units:
                           1         2         3
     Eigenvalues --   831.558491120.623481907.07403
           X            0.99780  -0.06621   0.00370
           Y            0.06623   0.99779  -0.00585
           Z           -0.00331   0.00609   0.99998
 This molecule is an asymmetric top.
 Rotational symmetry number  1.
 Warning -- assumption of classical behavior for rotation
           may cause significant error
 Rotational temperatures (Kelvin)      0.10416     0.07729     0.04542
 Rotational constants (GHZ):           2.17031     1.61048     0.94634
    1 imaginary frequencies ignored.
 Zero-point vibrational energy     266057.7 (Joules/Mol)
                                   63.58932 (Kcal/Mol)
 Warning -- explicit consideration of  13 degrees of freedom as
           vibrations may cause significant error
 Vibrational temperatures:     92.73   201.23   213.91   345.23   523.51
          (Kelvin)            589.16   646.12   676.90   706.32   748.17
                              789.73   822.61   858.08   950.33   993.43
                             1093.69  1244.70  1298.85  1355.52  1497.21
                             1599.03  1633.92  1710.48  1736.35  1859.73
                             1927.11  2016.10  2064.20  2065.06  2152.51
                             2203.00  2294.57  2423.08  2793.84  4728.78
                             4754.42  4806.16  5583.00

 Zero-point correction=                           0.101336 (Hartree/Particle)
 Thermal correction to Energy=                    0.109574
 Thermal correction to Enthalpy=                  0.110518
 Thermal correction to Gibbs Free Energy=         0.067487
 Sum of electronic and zero-point Energies=           -491.031324
 Sum of electronic and thermal Energies=              -491.023086
 Sum of electronic and thermal Enthalpies=            -491.022142
 Sum of electronic and thermal Free Energies=         -491.065173

                     E (Thermal)             CV                S
                      KCal/Mol        Cal/Mol-Kelvin    Cal/Mol-Kelvin
 Total                   68.759             31.012             90.567
 Electronic               0.000              0.000              1.377
 Translational            0.889              2.981             40.501
 Rotational               0.889              2.981             28.965
 Vibrational             66.981             25.050             19.724
 Vibration     1          0.597              1.971              4.316
 Vibration     2          0.615              1.913              2.806
 Vibration     3          0.618              1.904              2.689
 Vibration     4          0.657              1.779              1.803
 Vibration     5          0.737              1.547              1.106
 Vibration     6          0.774              1.450              0.928
 Vibration     7          0.808              1.363              0.799
 Vibration     8          0.827              1.316              0.736
 Vibration     9          0.847              1.270              0.681
 Vibration    10          0.875              1.206              0.610
 Vibration    11          0.904              1.142              0.546
 Vibration    12          0.928              1.092              0.501
 Vibration    13          0.954              1.039              0.456

 Optimization completed.
    -- Stationary point found.
 Normal termination of Gaussian 16 at Mon Nov  6 00:12:55 2023.
