 Gaussian 16, Revision C.01,
 Gaussian 16:  ES64L-G16RevC.01  3-Jul-2019

 -----------------------------------------------------
 # opt freq 6-31+g(d,p) m062x scrf=(SMD,solvent=water)
 -----------------------------------------------------

 -------------------
 Title Card Required
 -------------------
 Symbolic Z-matrix:
 Charge =  0 Multiplicity = 1

 SCF Done:  E(RM062X) =  -414.622102993     A.U. after   14 cycles
 SCF Done:  E(RM062X) =  -414.642506760     A.U. after   12 cycles
 SCF Done:  E(RM062X) =  -414.647807120     A.U. after   13 cycles
 SCF Done:  E(RM062X) =  -414.649534184     A.U. after   11 cycles
 SCF Done:  E(RM062X) =  -414.649701315     A.U. after   11 cycles
 SCF Done:  E(RM062X) =  -414.649638072     A.U. after   11 cycles
 SCF Done:  E(RM062X) =  -414.649720682     A.U. after   10 cycles
 SCF Done:  E(RM062X) =  -414.649732081     A.U. after   10 cycles
 SCF Done:  E(RM062X) =  -414.649732364     A.U. after    8 cycles
 Optimization completed.
    -- Stationary point found.
 Normal termination of Gaussian 16 at Fri Oct 27 05:39:44 2023.

 ----------------------------------------------------------------------
 #N Geom=AllCheck Guess=TCheck SCRF=Check GenChk RM062X/6-31+G(d,p) Fre
 q
 ----------------------------------------------------------------------

 Structure from the checkpoint file:  "/home/Tinker/g16/scratch/Gau-1663779.chk"
 -------------------
 Title Card Required
 -------------------
 Charge =  0 Multiplicity = 1

                         Standard orientation:
 ---------------------------------------------------------------------
 Center     Atomic      Atomic             Coordinates (Angstroms)
 Number     Number       Type             X           Y           Z
 ---------------------------------------------------------------------
      1          7           0        0.689321   -1.113760   -0.000018
      2          7           0        0.025804    0.071085   -0.000069
      3          6           0        0.875416    1.146087    0.000001
      4          6           0        2.142002    0.631311    0.000114
      5          6           0        1.964658   -0.780077   -0.000095
      6          1           0        0.495095    2.156770    0.000017
      7          1           0        3.071399    1.179878    0.000231
      8          6           0       -1.375976    0.111252   -0.000004
      9          8           0       -1.986244    1.155399   -0.000054
     10          8           0       -1.966476   -1.072983    0.000084
     11          1           0       -1.309630   -1.797103    0.000153
     12          1           0        2.722418   -1.551588   -0.000127
 ---------------------------------------------------------------------

 SCF Done:  E(RM062X) =  -414.649732364     A.U. after    1 cycles

 The electronic state is 1-A.
 Alpha  occ. eigenvalues --  -19.71390 -19.66301 -14.87094 -14.81360 -10.74935
 Alpha  occ. eigenvalues --  -10.60641 -10.59346 -10.56055  -1.27613  -1.18565
 Alpha  occ. eigenvalues --   -1.17553  -0.96339  -0.90476  -0.76523  -0.71664
 Alpha  occ. eigenvalues --   -0.70270  -0.64439  -0.59501  -0.57706  -0.55333
 Alpha  occ. eigenvalues --   -0.51652  -0.51446  -0.49274  -0.47780  -0.42208
 Alpha  occ. eigenvalues --   -0.40429  -0.39653  -0.34469  -0.32914
 Alpha virt. eigenvalues --   -0.01445   0.01695   0.03798   0.04093   0.04536
 Alpha virt. eigenvalues --    0.05779   0.06207   0.07016   0.07309   0.09015
 Alpha virt. eigenvalues --    0.09569   0.10046   0.11291   0.11297   0.12931

 Mulliken charges:
               1
     1  N   -0.221241
     2  N   -0.175224
     3  C   -0.215291
     4  C    0.041595
     5  C   -0.290850
     6  H    0.254698
     7  H    0.226115
     8  C    0.777960
     9  O   -0.548496
    10  O   -0.534071
    11  H    0.460699
    12  H    0.224105
 Sum of Mulliken charges =  -0.00000

 Dipole moment (field-independent basis, Debye):
    X=              5.4184    Y=             -1.1214    Z=              0.0004  Tot=              5.5332
 Quadrupole moment (field-independent basis, Debye-Ang):
   XX=            -48.4102   YY=            -42.5210   ZZ=            -47.1639
   XY=              5.5203   XZ=             -0.0001   YZ=              0.0002

  Exact polarizability:     117.306      -7.505      98.451       0.001       0.001      50.279
 Approx polarizability:      98.594      -6.240      89.757       0.001       0.000      46.756

                      1                      2                      3
                      A                      A                      A
 Frequencies --     89.1286               150.3124               226.4956
 Red. masses --      5.3151                 6.2515                 5.4690
 Frc consts  --      0.0249                 0.0832                 0.1653
 IR Inten    --     29.0265                 0.4521                35.1236

                      4                      5                      6
                      A                      A                      A
 Frequencies --    450.5556               493.3017               563.1561
 Red. masses --      6.6430                 1.1345                 6.7870
 Frc consts  --      0.7945                 0.1627                 1.2682
 IR Inten    --      1.0205               216.3783                12.6885

                      7                      8                      9
                      A                      A                      A
 Frequencies --    598.2308               659.2989               750.5333
 Red. masses --      3.2700                 4.7566                 7.9193
 Frc consts  --      0.6895                 1.2182                 2.6283
 IR Inten    --      6.9016                 5.8113                67.1502

                     10                     11                     12
                      A                      A                      A
 Frequencies --    762.6245               789.2113               907.2149
 Red. masses --     10.2539                 1.2322                 1.2917
 Frc consts  --      3.5137                 0.4522                 0.6264
 IR Inten    --     48.1045               125.0868                 3.0308

                     13                     14                     15
                      A                      A                      A
 Frequencies --    925.5984               943.7836               971.4110
 Red. masses --      6.0495                 1.4002                 3.3419
 Frc consts  --      3.0536                 0.7348                 1.8580
 IR Inten    --     15.5455                 4.7134               134.7837

                     16                     17                     18
                      A                      A                      A
 Frequencies --   1052.7585              1097.9390              1199.0172
 Red. masses --      1.4026                 1.5801                 2.6880
 Frc consts  --      0.9159                 1.1222                 2.2768
 IR Inten    --     87.2993                22.5430                24.4016

                     19                     20                     21
                      A                      A                      A
 Frequencies --   1230.4904              1280.5325              1346.1972
 Red. masses --      1.4189                 2.1171                 5.3656
 Frc consts  --      1.2658                 2.0453                 5.7291
 IR Inten    --    126.2486               280.3362               467.4987

                     22                     23                     24
                      A                      A                      A
 Frequencies --   1404.9986              1446.0221              1501.2481
 Red. masses --      3.3182                 4.4680                 6.8914
 Frc consts  --      3.8593                 5.5045                 9.1509
 IR Inten    --    505.5401               352.8063               273.5477

                     25                     26                     27
                      A                      A                      A
 Frequencies --   1615.0795              1814.1931              3292.6508
 Red. masses --      5.1785                10.2342                 1.0973
 Frc consts  --      7.9587                19.8460                 7.0091
 IR Inten    --     38.0794              1254.2278                 0.0392

                     28                     29                     30
                      A                      A                      A
 Frequencies --   3312.3462              3327.4298              3686.3457
 Red. masses --      1.0950                 1.1096                 1.0661
 Frc consts  --      7.0784                 7.2382                 8.5360
 IR Inten    --     12.4715                12.1584               347.9409

 - Thermochemistry -
 -------------------
 Temperature   298.150 Kelvin.  Pressure   1.00000 Atm.
 Atom     1 has atomic number  7 and mass  14.00307

 Molecular mass:   112.02728 amu.
 Principal axes and moments of inertia in atomic units:
                           1         2         3
     Eigenvalues --   346.157551013.073741359.23128
           X            0.99989   0.01500   0.00000
           Y           -0.01500   0.99989   0.00000
           Z           -0.00000  -0.00000   1.00000
 This molecule is an asymmetric top.
 Rotational symmetry number  1.
 Rotational temperatures (Kelvin)      0.25022     0.08550     0.06372
 Rotational constants (GHZ):           5.21364     1.78145     1.32777
 Zero-point vibrational energy     226621.2 (Joules/Mol)
                                   54.16377 (Kcal/Mol)
 Warning -- explicit consideration of   7 degrees of freedom as
           vibrations may cause significant error
 Vibrational temperatures:    128.24   216.27   325.88   648.25   709.75
          (Kelvin)            810.26   860.72   948.58  1079.85  1097.25
                             1135.50  1305.28  1331.73  1357.89  1397.64
                             1514.68  1579.69  1725.12  1770.40  1842.40
                             1936.88  2021.48  2080.50  2159.96  2323.74
                             2610.22  4737.39  4765.73  4787.43  5303.83

 Zero-point correction=                           0.086315 (Hartree/Particle)
 Thermal correction to Energy=                    0.092616
 Thermal correction to Enthalpy=                  0.093561
 Thermal correction to Gibbs Free Energy=         0.055417
 Sum of electronic and zero-point Energies=           -414.563417
 Sum of electronic and thermal Energies=              -414.557116
 Sum of electronic and thermal Enthalpies=            -414.556172
 Sum of electronic and thermal Free Energies=         -414.594315

                     E (Thermal)             CV                S
                      KCal/Mol        Cal/Mol-Kelvin    Cal/Mol-Kelvin
 Total                   58.118             22.853             80.280
 Electronic               0.000              0.000              0.000
 Translational            0.889              2.981             40.057
 Rotational               0.889              2.981             27.657
 Vibrational             56.340             16.891             12.566
 Vibration     1          0.602              1.957              3.679
 Vibration     2          0.618              1.902              2.668
 Vibration     3          0.650              1.801              1.907
 Vibration     4          0.809              1.360              0.794
 Vibration     5          0.849              1.265              0.675
 Vibration     6          0.919              1.111              0.518
 Vibration     7          0.956              1.036              0.453

 Optimization completed.
    -- Stationary point found.
 Normal termination of Gaussian 16 at Fri Oct 27 05:40:58 2023.
