 Gaussian 16, Revision A.03,
 Gaussian 16:  ES64L-G16RevA.03 25-Dec-2016

 ----------------------------------------------------------------------
 # opt=(calcfc,ts,noeigentest) freq 6-31+g(d,p) scrf=(smd,solvent=water
 ) integral=grid=ultrafine m062x
 ----------------------------------------------------------------------

 -------------------
 Title Card Required
 -------------------
 Symbolic Z-matrix:
 Charge =  0 Multiplicity = 1

 SCF Done:  E(RM062X) =  -491.033436962     A.U. after   14 cycles
 SCF Done:  E(RM062X) =  -491.047217498     A.U. after   12 cycles
 SCF Done:  E(RM062X) =  -491.055279091     A.U. after   12 cycles
 SCF Done:  E(RM062X) =  -491.059866466     A.U. after   12 cycles
 SCF Done:  E(RM062X) =  -491.061315997     A.U. after   12 cycles
 SCF Done:  E(RM062X) =  -491.060454544     A.U. after   12 cycles
 SCF Done:  E(RM062X) =  -491.062211802     A.U. after   12 cycles
 SCF Done:  E(RM062X) =  -491.061129511     A.U. after   12 cycles
 SCF Done:  E(RM062X) =  -491.060665914     A.U. after   12 cycles
 SCF Done:  E(RM062X) =  -491.062338546     A.U. after   12 cycles
 SCF Done:  E(RM062X) =  -491.062418538     A.U. after   12 cycles
 SCF Done:  E(RM062X) =  -491.062441773     A.U. after   11 cycles
 SCF Done:  E(RM062X) =  -491.062435247     A.U. after   12 cycles
 SCF Done:  E(RM062X) =  -491.062477296     A.U. after   11 cycles
 SCF Done:  E(RM062X) =  -491.062397304     A.U. after   11 cycles
 SCF Done:  E(RM062X) =  -491.062472713     A.U. after   11 cycles
 SCF Done:  E(RM062X) =  -491.062476313     A.U. after    9 cycles
 SCF Done:  E(RM062X) =  -491.062475643     A.U. after    9 cycles
 SCF Done:  E(RM062X) =  -491.062475366     A.U. after    9 cycles
 Optimization completed.
    -- Stationary point found.
 Normal termination of Gaussian 16 at Sun Nov  5 10:17:36 2023.

 ----------------------------------------------------------------------
 #N Geom=AllCheck Guess=TCheck SCRF=Check GenChk RM062X/6-31+G(d,p) Fre
 q
 ----------------------------------------------------------------------

 Structure from the checkpoint file:  "/scratch/gongke2021/bizuo-TS/Gau-5964.chk"
 -------------------
 Title Card Required
 -------------------
 Charge =  0 Multiplicity = 1

                         Standard orientation:
 ---------------------------------------------------------------------
 Center     Atomic      Atomic             Coordinates (Angstroms)
 Number     Number       Type             X           Y           Z
 ---------------------------------------------------------------------
      1          7           0        0.398974    0.989536   -0.010789
      2          7           0        0.348570   -0.362474    0.002005
      3          6           0        1.601718   -0.885060    0.010358
      4          6           0        2.489483    0.166261    0.004130
      5          6           0        1.681835    1.320022   -0.008858
      6          1           0        1.751311   -1.953776    0.018652
      7          1           0        3.567159    0.114548    0.007283
      8          6           0       -0.894923   -1.135524   -0.001551
      9          8           0       -0.740609   -2.357045    0.019758
     10          8           0       -1.970299   -0.480422   -0.027174
     11          1           0       -0.802128    1.746806   -0.017803
     12          1           0        1.970181    2.362042   -0.016798
     13          8           0       -1.874988    1.980509   -0.075292
     14          1           0       -2.131540    0.970141   -0.025471
     15          1           0       -2.169299    2.432289    0.732821
 ---------------------------------------------------------------------

 SCF Done:  E(RM062X) =  -491.062475366     A.U. after    1 cycles

 The electronic state is 1-A.
 Alpha  occ. eigenvalues --  -19.69819 -19.64467 -19.63306 -14.86490 -14.82602
 Alpha  occ. eigenvalues --  -10.72098 -10.60357 -10.59807 -10.55854  -1.23444
 Alpha  occ. eigenvalues --   -1.19650  -1.17717  -1.11908  -0.95439  -0.90165
 Alpha  occ. eigenvalues --   -0.74271  -0.70532  -0.68933  -0.66553  -0.61012
 Alpha  occ. eigenvalues --   -0.58464  -0.57508  -0.54681  -0.53976  -0.50567
 Alpha  occ. eigenvalues --   -0.50311  -0.49707  -0.47727  -0.41034  -0.39412
 Alpha  occ. eigenvalues --   -0.37379  -0.36705  -0.34472  -0.32906
 Alpha virt. eigenvalues --   -0.00350   0.01922   0.03716   0.04205   0.04649
 Alpha virt. eigenvalues --    0.05806   0.06393   0.06968   0.07237   0.09174
 Alpha virt. eigenvalues --    0.10037   0.10230   0.11162   0.11439   0.12498

 Mulliken charges:
               1
     1  N   -0.227603
     2  N   -0.266941
     3  C   -0.234465
     4  C    0.050407
     5  C   -0.294601
     6  H    0.250501
     7  H    0.225991
     8  C    0.854112
     9  O   -0.632215
    10  O   -0.754684
    11  H    0.543017
    12  H    0.233711
    13  O   -0.779908
    14  H    0.544520
    15  H    0.488157
 Sum of Mulliken charges =   0.00000

 Dipole moment (field-independent basis, Debye):
    X=              4.2166    Y=              9.0073    Z=              1.9673  Tot=             10.1381
 Quadrupole moment (field-independent basis, Debye-Ang):
   XX=            -46.2811   YY=            -53.7791   ZZ=            -53.2752
   XY=            -11.8130   XZ=             -4.4641   YZ=              5.0403

  Exact polarizability: 121.091   0.425 121.772  -0.274   0.179  58.952
 Approx polarizability: 101.524  -1.223 105.243  -0.175   0.131  54.260

 ******    1 imaginary frequencies (negative Signs) ******

                      1                      2                      3
                      A                      A                      A
 Frequencies --   -234.1387                77.0218                93.8033
 Red. masses --      2.3501                 6.7977                 5.9827
 Frc consts  --      0.0759                 0.0238                 0.0310
 IR Inten    --    216.6081                12.7751                 6.2136

                      4                      5                      6
                      A                      A                      A
 Frequencies --    158.7582               257.2402               338.2925
 Red. masses --      6.3254                 6.7927                 4.5104
 Frc consts  --      0.0939                 0.2648                 0.3041
 IR Inten    --      0.8039                14.9122               378.5742

                      7                      8                      9
                      A                      A                      A
 Frequencies --    473.1110               547.1021               556.9093
 Red. masses --      6.2021                 1.3363                 2.7109
 Frc consts  --      0.8179                 0.2357                 0.4954
 IR Inten    --    153.2387               153.9840                40.2076

                     10                     11                     12
                      A                      A                      A
 Frequencies --    585.0559               611.2881               656.7805
 Red. masses --      1.5678                 2.9410                 4.0093
 Frc consts  --      0.3162                 0.6475                 1.0190
 IR Inten    --    167.2146                25.9061                36.5880

                     13                     14                     15
                      A                      A                      A
 Frequencies --    707.9739               780.1267               793.2316
 Red. masses --      1.2806                 7.9451                 1.2550
 Frc consts  --      0.3782                 2.8489                 0.4652
 IR Inten    --     76.7851                98.7516                91.1919

                     16                     17                     18
                      A                      A                      A
 Frequencies --    811.1914               914.3856               934.6378
 Red. masses --     10.4330                 1.3254                 5.8178
 Frc consts  --      4.0449                 0.6529                 2.9943
 IR Inten    --    349.4751                 2.7581                12.5071

                     19                     20                     21
                      A                      A                      A
 Frequencies --    946.9131              1009.8220              1079.2780
 Red. masses --      1.3968                 1.6294                 1.4316
 Frc consts  --      0.7379                 0.9790                 0.9825
 IR Inten    --      7.4945                29.1328               303.8418

                     22                     23                     24
                      A                      A                      A
 Frequencies --   1116.1632              1224.2041              1251.7906
 Red. masses --      2.6397                 1.4621                 1.8329
 Frc consts  --      1.9376                 1.2910                 1.6922
 IR Inten    --      5.1396               457.3520              2021.6758

                     25                     26                     27
                      A                      A                      A
 Frequencies --   1308.5402              1328.4569              1397.9927
 Red. masses --      2.2710                 4.1695                 3.2453
 Frc consts  --      2.2911                 4.3354                 3.7369
 IR Inten    --    659.8120              1764.6771                40.2988

                     28                     29                     30
                      A                      A                      A
 Frequencies --   1425.8990              1460.0888              1491.4211
 Red. masses --      1.2730                 4.5253                 4.9209
 Frc consts  --      1.5249                 5.6840                 6.4491
 IR Inten    --    545.9038               236.0479                43.0736

                     31                     32                     33
                      A                      A                      A
 Frequencies --   1552.1071              1608.3032              1724.7626
 Red. masses --      1.2508                 4.5123                 4.7421
 Frc consts  --      1.7753                 6.8768                 8.3115
 IR Inten    --   1706.6528                75.5379               879.8670

                     34                     35                     36
                      A                      A                      A
 Frequencies --   1926.7295              2580.5900              3301.2965
 Red. masses --      1.1535                 1.0629                 1.0964
 Frc consts  --      2.5230                 4.1702                 7.0404
 IR Inten    --   1358.4698              2380.5733                 0.1415

                     37                     38                     39
                      A                      A                      A
 Frequencies --   3316.5087              3330.7696              3812.6522
 Red. masses --      1.0974                 1.1080                 1.0654
 Frc consts  --      7.1119                 7.2422                 9.1248
 IR Inten    --     11.0702                13.6500               292.8953

 - Thermochemistry -
 -------------------
 Temperature   298.150 Kelvin.  Pressure   1.00000 Atm.
 Atom     1 has atomic number  7 and mass  14.00307

 Molecular mass:   130.03784 amu.
 Principal axes and moments of inertia in atomic units:
                           1         2         3
     Eigenvalues --   843.398821109.866001948.74543
           X            0.99560  -0.09358  -0.00493
           Y            0.09361   0.99558   0.00722
           Z            0.00423  -0.00765   0.99996
 This molecule is an asymmetric top.
 Rotational symmetry number  1.
 Warning -- assumption of classical behavior for rotation
           may cause significant error
 Rotational temperatures (Kelvin)      0.10270     0.07804     0.04445
 Rotational constants (GHZ):           2.13984     1.62609     0.92610
    1 imaginary frequencies ignored.
 Zero-point vibrational energy     284060.5 (Joules/Mol)
                                   67.89208 (Kcal/Mol)
 Warning -- explicit consideration of  10 degrees of freedom as
           vibrations may cause significant error
 Vibrational temperatures:    110.82   134.96   228.42   370.11   486.73
          (Kelvin)            680.70   787.16   801.27   841.76   879.51
                              944.96  1018.62  1122.43  1141.28  1167.12
                             1315.60  1344.74  1362.40  1452.91  1552.84
                             1605.91  1761.36  1801.05  1882.70  1911.35
                             2011.40  2051.55  2100.74  2145.82  2233.14
                             2313.99  2481.55  2772.13  3712.89  4749.83
                             4771.72  4792.23  5485.56

 Zero-point correction=                           0.108193 (Hartree/Particle)
 Thermal correction to Energy=                    0.115769
 Thermal correction to Enthalpy=                  0.116713
 Thermal correction to Gibbs Free Energy=         0.075234
 Sum of electronic and zero-point Energies=           -490.954282
 Sum of electronic and thermal Energies=              -490.946706
 Sum of electronic and thermal Enthalpies=            -490.945762
 Sum of electronic and thermal Free Energies=         -490.987242

                     E (Thermal)             CV                S
                      KCal/Mol        Cal/Mol-Kelvin    Cal/Mol-Kelvin
 Total                   72.646             27.958             87.302
 Electronic               0.000              0.000              0.000
 Translational            0.889              2.981             40.501
 Rotational               0.889              2.981             28.991
 Vibrational             70.869             21.997             17.810
 Vibration     1          0.599              1.964              3.965
 Vibration     2          0.603              1.954              3.579
 Vibration     3          0.621              1.893              2.565
 Vibration     4          0.667              1.751              1.680
 Vibration     5          0.719              1.599              1.220
 Vibration     6          0.830              1.310              0.729
 Vibration     7          0.902              1.146              0.550
 Vibration     8          0.912              1.125              0.530
 Vibration     9          0.942              1.064              0.476
 Vibration    10          0.970              1.008              0.431

 Optimization completed.
    -- Stationary point found.
 Normal termination of Gaussian 16 at Sun Nov  5 10:19:45 2023.
