 Gaussian 16, Revision A.03,
 Gaussian 16:  ES64L-G16RevA.03 25-Dec-2016

 -----------------------------------------------------
 # opt freq 6-31+g(d,p) scrf=(smd,solvent=water) m062x
 -----------------------------------------------------

 -------------------
 Title Card Required
 -------------------
 Symbolic Z-matrix:
 Charge =  0 Multiplicity = 1

 SCF Done:  E(RM062X) =  -491.063518546     A.U. after   13 cycles
 SCF Done:  E(RM062X) =  -491.063503138     A.U. after   10 cycles
 SCF Done:  E(RM062X) =  -491.063518654     A.U. after   10 cycles
 SCF Done:  E(RM062X) =  -491.063519313     A.U. after    9 cycles
 SCF Done:  E(RM062X) =  -491.063519182     A.U. after    9 cycles
 SCF Done:  E(RM062X) =  -491.063519660     A.U. after    8 cycles
 SCF Done:  E(RM062X) =  -491.063519903     A.U. after    8 cycles
 SCF Done:  E(RM062X) =  -491.063520157     A.U. after    8 cycles
 SCF Done:  E(RM062X) =  -491.063520550     A.U. after    7 cycles
 SCF Done:  E(RM062X) =  -491.063520923     A.U. after    8 cycles
 SCF Done:  E(RM062X) =  -491.063521353     A.U. after    8 cycles
 SCF Done:  E(RM062X) =  -491.063521560     A.U. after    8 cycles
 SCF Done:  E(RM062X) =  -491.063521686     A.U. after    8 cycles
 SCF Done:  E(RM062X) =  -491.063521772     A.U. after    7 cycles
 SCF Done:  E(RM062X) =  -491.063521883     A.U. after    7 cycles
 SCF Done:  E(RM062X) =  -491.063521998     A.U. after    7 cycles
 Optimization completed.
    -- Stationary point found.
 Normal termination of Gaussian 16 at Sun Nov  5 09:19:11 2023.

 ----------------------------------------------------------------------
 #N Geom=AllCheck Guess=TCheck SCRF=Check GenChk RM062X/6-31+G(d,p) Fre
 q
 ----------------------------------------------------------------------

 Structure from the checkpoint file:  "/scratch/gongke2021/bizuo/Gau-19806.chk"
 -------------------
 Title Card Required
 -------------------
 Charge =  0 Multiplicity = 1

                         Standard orientation:
 ---------------------------------------------------------------------
 Center     Atomic      Atomic             Coordinates (Angstroms)
 Number     Number       Type             X           Y           Z
 ---------------------------------------------------------------------
      1          7           0        1.191984    0.785995   -0.003423
      2          7           0        0.449833   -0.322904    0.125924
      3          6           0        1.323785   -1.328884    0.093005
      4          6           0        2.643024   -0.855954   -0.058080
      5          6           0        2.509004    0.520024   -0.116643
      6          1           0        0.974350   -2.349313    0.178596
      7          1           0        3.555492   -1.429874   -0.116248
      8          6           0       -2.204246   -0.899029   -0.056825
      9          8           0       -1.942980   -2.020124    0.104798
     10          8           0       -2.534000    0.205465   -0.225091
     11          1           0        0.713944    1.687797   -0.006795
     12          1           0        3.234954    1.312200   -0.228250
     13          8           0       -0.902581    2.763594    0.023232
     14          1           0       -1.568298    2.062755    0.079895
     15          1           0       -0.996071    3.266375    0.843036
 ---------------------------------------------------------------------

 SCF Done:  E(RM062X) =  -491.063521998     A.U. after    1 cycles

 The electronic state is 1-A.
 Alpha  occ. eigenvalues --  -19.72758 -19.72687 -19.65280 -14.83092 -14.78771
 Alpha  occ. eigenvalues --  -10.75278 -10.58287 -10.56757 -10.54090  -1.28892
 Alpha  occ. eigenvalues --   -1.23931  -1.16382  -1.13436  -0.91527  -0.87474
 Alpha  occ. eigenvalues --   -0.68642  -0.67439  -0.66211  -0.62431  -0.61560
 Alpha  occ. eigenvalues --   -0.59908  -0.59799  -0.59180  -0.51845  -0.51175
 Alpha  occ. eigenvalues --   -0.48969  -0.47684  -0.45839  -0.44240  -0.44152
 Alpha  occ. eigenvalues --   -0.40439  -0.37018  -0.31911  -0.30711
 Alpha virt. eigenvalues --    0.01305   0.03220   0.04159   0.04511   0.04799
 Alpha virt. eigenvalues --    0.05525   0.05795   0.07228   0.07624   0.08513
 Alpha virt. eigenvalues --    0.08612   0.08940   0.09237   0.10166   0.11487

 Mulliken charges:
               1
     1  N   -0.179237
     2  N   -0.383156
     3  C   -0.196954
     4  C   -0.123368
     5  C   -0.224437
     6  H    0.200643
     7  H    0.205170
     8  C    0.855897
     9  O   -0.383763
    10  O   -0.435882
    11  H    0.430022
    12  H    0.227696
    13  O   -0.886252
    14  H    0.453132
    15  H    0.440490
 Sum of Mulliken charges =   0.00000

 Dipole moment (field-independent basis, Debye):
    X=              0.7064    Y=              2.1475    Z=              1.6444  Tot=              2.7955
 Quadrupole moment (field-independent basis, Debye-Ang):
   XX=            -43.3528   YY=            -48.5093   ZZ=            -53.5258
   XY=              0.1245   XZ=             -3.0825   YZ=              6.9286

  Exact polarizability:  98.802  -4.975 117.551  -2.064  -3.947  63.002
 Approx polarizability:  87.212  -6.078 109.706  -1.762  -4.053  56.626

                      1                      2                      3
                      A                      A                      A
 Frequencies --     29.8837                40.1997                55.8972
 Red. masses --      6.5374                 7.4909                 5.0298
 Frc consts  --      0.0034                 0.0071                 0.0093
 IR Inten    --      6.4590                 1.9572                11.4557

                      4                      5                      6
                      A                      A                      A
 Frequencies --     81.9671               103.6613               122.3140
 Red. masses --      4.1539                 8.5624                 8.5875
 Frc consts  --      0.0164                 0.0542                 0.0757
 IR Inten    --      6.5712                 2.3247                 1.2065

                      7                      8                      9
                      A                      A                      A
 Frequencies --    163.1392               169.0836               214.2793
 Red. masses --      8.1663                 8.4890                 1.0510
 Frc consts  --      0.1281                 0.1430                 0.0284
 IR Inten    --     13.7093                 5.6145               176.5688

                     10                     11                     12
                      A                      A                      A
 Frequencies --    266.0167               338.4167               629.1804
 Red. masses --      1.1221                 1.0536                12.6010
 Frc consts  --      0.0468                 0.0711                 2.9390
 IR Inten    --    283.7190               181.9204               132.4148

                     13                     14                     15
                      A                      A                      A
 Frequencies --    629.9733               663.5984               674.7016
 Red. masses --      3.3145                12.7028                 4.9826
 Frc consts  --      0.7750                 3.2958                 1.3364
 IR Inten    --     34.2292                56.8565                 0.7646

                     16                     17                     18
                      A                      A                      A
 Frequencies --    777.6083               795.2440               892.6822
 Red. masses --      1.1865                 1.1482                 1.2373
 Frc consts  --      0.4227                 0.4278                 0.5809
 IR Inten    --     44.5188               270.4714                19.3698

                     19                     20                     21
                      A                      A                      A
 Frequencies --    924.0260               924.3428               943.9038
 Red. masses --      1.4249                 5.1733                 3.2994
 Frc consts  --      0.7168                 2.6043                 1.7320
 IR Inten    --      4.4959                11.3382                19.6357

                     22                     23                     24
                      A                      A                      A
 Frequencies --   1057.9916              1076.2877              1167.0738
 Red. masses --      1.3799                 1.4625                 1.6535
 Frc consts  --      0.9100                 0.9982                 1.3270
 IR Inten    --     16.5072                93.6878                53.0028

                     25                     26                     27
                      A                      A                      A
 Frequencies --   1212.4560              1305.0372              1403.5085
 Red. masses --      4.2574                 1.6297                15.9158
 Frc consts  --      3.6874                 1.6354                18.4718
 IR Inten    --      9.8461                18.7962                 2.3361

                     28                     29                     30
                      A                      A                      A
 Frequencies --   1412.8109              1453.7411              1531.1421
 Red. masses --      2.9994                 4.2701                 3.0027
 Frc consts  --      3.5274                 5.3170                 4.1476
 IR Inten    --     16.9712                48.7718                34.0948

                     31                     32                     33
                      A                      A                      A
 Frequencies --   1574.0938              1588.9810              2374.9036
 Red. masses --      1.0835                 2.9372                12.8494
 Frc consts  --      1.5818                 4.3694                42.6997
 IR Inten    --    154.6903                 5.8218              1607.3290

                     34                     35                     36
                      A                      A                      A
 Frequencies --   3282.3558              3302.6146              3317.7444
 Red. masses --      1.0953                 1.0950                 1.1082
 Frc consts  --      6.9526                 7.0370                 7.1868
 IR Inten    --      1.9671                 1.0659                 2.4912

                     37                     38                     39
                      A                      A                      A
 Frequencies --   3488.6884              3823.0421              3917.8023
 Red. masses --      1.0890                 1.0466                 1.0813
 Frc consts  --      7.8089                 9.0128                 9.7785
 IR Inten    --    926.3529               129.2460               297.5106

 - Thermochemistry -
 -------------------
 Temperature   298.150 Kelvin.  Pressure   1.00000 Atm.
 Atom     1 has atomic number  7 and mass  14.00307

 Molecular mass:   130.03784 amu.
 Principal axes and moments of inertia in atomic units:
                           1         2         3
     Eigenvalues --   965.253001672.037302620.50179
           X            0.99915  -0.04108  -0.00425
           Y            0.04112   0.99911   0.00901
           Z            0.00388  -0.00917   0.99995
 This molecule is an asymmetric top.
 Rotational symmetry number  1.
 Warning -- assumption of classical behavior for rotation
           may cause significant error
 Rotational temperatures (Kelvin)      0.08973     0.05180     0.03305
 Rotational constants (GHZ):           1.86971     1.07937     0.68870
 Zero-point vibrational energy     285491.2 (Joules/Mol)
                                   68.23402 (Kcal/Mol)
 Warning -- explicit consideration of  11 degrees of freedom as
           vibrations may cause significant error
 Vibrational temperatures:     43.00    57.84    80.42   117.93   149.15
          (Kelvin)            175.98   234.72   243.27   308.30   382.74
                              486.91   905.25   906.39   954.77   970.75
                             1118.80  1144.18  1284.37  1329.47  1329.92
                             1358.07  1522.21  1548.54  1679.16  1744.45
                             1877.66  2019.34  2032.72  2091.61  2202.97
                             2264.77  2286.19  3416.96  4722.58  4751.73
                             4773.49  5019.44  5500.50  5636.84

 Zero-point correction=                           0.108738 (Hartree/Particle)
 Thermal correction to Energy=                    0.119965
 Thermal correction to Enthalpy=                  0.120909
 Thermal correction to Gibbs Free Energy=         0.069174
 Sum of electronic and zero-point Energies=           -490.954784
 Sum of electronic and thermal Energies=              -490.943557
 Sum of electronic and thermal Enthalpies=            -490.942613
 Sum of electronic and thermal Free Energies=         -490.994348

                     E (Thermal)             CV                S
                      KCal/Mol        Cal/Mol-Kelvin    Cal/Mol-Kelvin
 Total                   75.279             35.280            108.886
 Electronic               0.000              0.000              0.000
 Translational            0.889              2.981             40.501
 Rotational               0.889              2.981             29.826
 Vibrational             73.502             29.319             38.559
 Vibration     1          0.594              1.984              5.837
 Vibration     2          0.594              1.981              5.249
 Vibration     3          0.596              1.975              4.597
 Vibration     4          0.600              1.961              3.843
 Vibration     5          0.605              1.946              3.384
 Vibration     6          0.610              1.931              3.063
 Vibration     7          0.623              1.888              2.513
 Vibration     8          0.625              1.881              2.446
 Vibration     9          0.644              1.819              2.007
 Vibration    10          0.672              1.735              1.622
 Vibration    11          0.719              1.599              1.220

                           ! Non-Optimized Parameters !
 Normal termination of Gaussian 16 at Sun Nov  5 09:21:08 2023.
