 Gaussian 16, Revision A.03,
 Gaussian 16:  ES64L-G16RevA.03 25-Dec-2016

 -----------------------------------------------------
 # opt freq 6-31+g(d,p) scrf=(smd,solvent=water) m062x
 -----------------------------------------------------

 -------------------
 Title Card Required
 -------------------
 Symbolic Z-matrix:
 Charge = -1 Multiplicity = 2

 SCF Done:  E(UM062X) =  -414.709704294     A.U. after   19 cycles
 SCF Done:  E(UM062X) =  -414.719291878     A.U. after   16 cycles
 SCF Done:  E(UM062X) =  -414.720299419     A.U. after   15 cycles
 SCF Done:  E(UM062X) =  -414.720357869     A.U. after   14 cycles
 SCF Done:  E(UM062X) =  -414.720364775     A.U. after   11 cycles
 SCF Done:  E(UM062X) =  -414.720365416     A.U. after   10 cycles
 Optimization completed.
    -- Stationary point found.
 Normal termination of Gaussian 16 at Sun Nov  5 01:54:39 2023.

 ----------------------------------------------------------------------
 #N Geom=AllCheck Guess=TCheck SCRF=Check GenChk UM062X/6-31+G(d,p) Fre
 q
 ----------------------------------------------------------------------

 Structure from the checkpoint file:  "/scratch/gongke2021/bizuo-PC/Gau-4236.chk"
 -------------------
 Title Card Required
 -------------------
 Charge = -1 Multiplicity = 2

                         Standard orientation:
 ---------------------------------------------------------------------
 Center     Atomic      Atomic             Coordinates (Angstroms)
 Number     Number       Type             X           Y           Z
 ---------------------------------------------------------------------
      1          7           0        0.682793   -1.128031   -0.000023
      2          7           0       -0.001767    0.081030   -0.000005
      3          6           0        0.871377    1.171844    0.000021
      4          6           0        2.157902    0.622282    0.000004
      5          6           0        1.993139   -0.760671    0.000003
      6          1           0        0.499431    2.183284    0.000029
      7          1           0        3.089777    1.170018    0.000007
      8          6           0       -1.347957    0.112182    0.000002
      9          8           0       -2.031465    1.166053    0.000027
     10          8           0       -1.955975   -1.112798   -0.000026
     11          1           0       -1.257578   -1.794704   -0.000026
     12          1           0        2.753947   -1.529466   -0.000000
 ---------------------------------------------------------------------

 SCF Done:  E(UM062X) =  -414.720365416     A.U. after    1 cycles

 The electronic state is 2-A.
 Alpha  occ. eigenvalues --  -19.67451 -19.61240 -14.83418 -14.76115 -10.67694
 Alpha  occ. eigenvalues --  -10.55474 -10.55052 -10.52897  -1.21868  -1.12829
 Alpha  occ. eigenvalues --   -1.11149  -0.92359  -0.85977  -0.73574  -0.66683
 Alpha  occ. eigenvalues --   -0.65779  -0.60738  -0.55467  -0.53385  -0.51574
 Alpha  occ. eigenvalues --   -0.48120  -0.46832  -0.46116  -0.44171  -0.39579
 Alpha  occ. eigenvalues --   -0.36419  -0.35876  -0.32497  -0.30437  -0.12816
 Alpha virt. eigenvalues --    0.02693   0.04601   0.04930   0.05648   0.06559
 Alpha virt. eigenvalues --    0.07047   0.07800   0.08328   0.10596   0.10669
 Alpha virt. eigenvalues --    0.10813   0.12259   0.13059   0.13638   0.16019

  Beta  occ. eigenvalues --  -19.67378 -19.60995 -14.83517 -14.75776 -10.67442
  Beta  occ. eigenvalues --  -10.55192 -10.54965 -10.52923  -1.21381  -1.12440
  Beta  occ. eigenvalues --   -1.10444  -0.91632  -0.85226  -0.72739  -0.66287
  Beta  occ. eigenvalues --   -0.65434  -0.59977  -0.53987  -0.52761  -0.51269
  Beta  occ. eigenvalues --   -0.47688  -0.45842  -0.45496  -0.43770  -0.37543
  Beta  occ. eigenvalues --   -0.35887  -0.35258  -0.30731  -0.27603
  Beta virt. eigenvalues --    0.01349   0.02120   0.04163   0.04481   0.04885
  Beta virt. eigenvalues --    0.06123   0.06602   0.07349   0.08964   0.09691
  Beta virt. eigenvalues --    0.10406   0.10770   0.11564   0.13157   0.13830

 Mulliken charges and spin densities:
               1          2
     1  N   -0.472484   0.237154
     2  N   -0.131699  -0.101362
     3  C   -0.354029   0.378755
     4  C   -0.032531  -0.025856
     5  C   -0.330397   0.141775
     6  H    0.207810  -0.018231
     7  H    0.189323  -0.000422
     8  C    0.697903   0.269508
     9  O   -0.771603   0.109088
    10  O   -0.625048   0.018878
    11  H    0.440393  -0.001920
    12  H    0.182363  -0.007368
 Sum of Mulliken charges =  -1.00000   1.00000

 Dipole moment (field-independent basis, Debye):
    X=              5.6160    Y=             -1.7598    Z=             -0.0000  Tot=              5.8853
 Quadrupole moment (field-independent basis, Debye-Ang):
   XX=            -67.1136   YY=            -53.4217   ZZ=            -52.4663
   XY=              6.7289   XZ=              0.0001   YZ=             -0.0002

  Exact polarizability: 181.565 -10.489 125.030  -0.000   0.001  69.414
 Approx polarizability: 123.744  -6.471 102.711  -0.000   0.001  58.810

                      1                      2                      3
                      A                      A                      A
 Frequencies --    136.3000               154.9540               227.3570
 Red. masses --      5.5663                 5.5462                 5.5597
 Frc consts  --      0.0609                 0.0785                 0.1693
 IR Inten    --     27.8042                 7.9258                33.8907

                      4                      5                      6
                      A                      A                      A
 Frequencies --    399.8324               404.4680               438.1512
 Red. masses --      1.1498                 4.6526                 6.7044
 Frc consts  --      0.1083                 0.4484                 0.7583
 IR Inten    --     96.4800               224.1411                 2.9399

                      7                      8                      9
                      A                      A                      A
 Frequencies --    474.1165               565.6693               585.2640
 Red. masses --      1.3993                 6.7157                 7.1789
 Frc consts  --      0.1853                 1.2661                 1.4488
 IR Inten    --     71.9698                32.7900                 6.9944

                     10                     11                     12
                      A                      A                      A
 Frequencies --    601.3449               690.1375               725.4487
 Red. masses --      4.2234                 9.8514                 1.2035
 Frc consts  --      0.8998                 2.7645                 0.3732
 IR Inten    --      2.9240                87.5898               130.4934

                     13                     14                     15
                      A                      A                      A
 Frequencies --    843.1220               893.0076               910.2415
 Red. masses --      1.2822                 4.3038                 5.4676
 Frc consts  --      0.5370                 2.0221                 2.6691
 IR Inten    --      0.1423                68.5584                 2.8601

                     16                     17                     18
                      A                      A                      A
 Frequencies --   1018.3610              1048.8007              1119.4108
 Red. masses --      2.0526                 2.0486                 1.6977
 Frc consts  --      1.2542                 1.3277                 1.2534
 IR Inten    --    312.3462               287.1775               139.5959

                     19                     20                     21
                      A                      A                      A
 Frequencies --   1193.7065              1249.9615              1274.3396
 Red. masses --      1.6937                 2.3749                 2.4632
 Frc consts  --      1.4220                 2.1862                 2.3568
 IR Inten    --    157.9938               169.7657               247.4213

                     22                     23                     24
                      A                      A                      A
 Frequencies --   1348.8252              1442.5649              1463.5113
 Red. masses --      2.8720                 5.4845                 4.1066
 Frc consts  --      3.0786                 6.7244                 5.1823
 IR Inten    --    189.6838               132.2280               249.1436

                     25                     26                     27
                      A                      A                      A
 Frequencies --   1512.0029              1685.0391              3276.3529
 Red. masses --      4.3563                 8.1352                 1.0895
 Frc consts  --      5.8677                13.6094                 6.8909
 IR Inten    --      3.3795              1515.3704                 0.0272

                     28                     29                     30
                      A                      A                      A
 Frequencies --   3294.3168              3329.4262              3689.6981
 Red. masses --      1.1007                 1.0985                 1.0651
 Frc consts  --      7.0382                 7.1743                 8.5434
 IR Inten    --      7.5366                 8.7086               163.0445

 - Thermochemistry -
 -------------------
 Temperature   298.150 Kelvin.  Pressure   1.00000 Atm.
 Atom     1 has atomic number  7 and mass  14.00307

 Molecular mass:   112.02728 amu.
 Principal axes and moments of inertia in atomic units:
                           1         2         3
     Eigenvalues --   355.079971025.327361380.40732
           X            0.99989   0.01456  -0.00000
           Y           -0.01456   0.99989  -0.00002
           Z            0.00000   0.00002   1.00000
 This molecule is an asymmetric top.
 Rotational symmetry number  1.
 Rotational temperatures (Kelvin)      0.24393     0.08447     0.06275
 Rotational constants (GHZ):           5.08263     1.76016     1.30740
 Zero-point vibrational energy     215302.3 (Joules/Mol)
                                   51.45848 (Kcal/Mol)
 Warning -- explicit consideration of  10 degrees of freedom as
           vibrations may cause significant error
 Vibrational temperatures:    196.11   222.94   327.12   575.27   581.94
          (Kelvin)            630.40   682.15   813.87   842.06   865.20
                              992.95  1043.76  1213.06  1284.84  1309.63
                             1465.19  1508.99  1610.58  1717.48  1798.42
                             1833.49  1940.66  2075.53  2105.67  2175.43
                             2424.40  4713.94  4739.79  4790.30  5308.65

 Zero-point correction=                           0.082004 (Hartree/Particle)
 Thermal correction to Energy=                    0.088851
 Thermal correction to Enthalpy=                  0.089795
 Thermal correction to Gibbs Free Energy=         0.050428
 Sum of electronic and zero-point Energies=           -414.638361
 Sum of electronic and thermal Energies=              -414.631514
 Sum of electronic and thermal Enthalpies=            -414.630570
 Sum of electronic and thermal Free Energies=         -414.669938

                     E (Thermal)             CV                S
                      KCal/Mol        Cal/Mol-Kelvin    Cal/Mol-Kelvin
 Total                   55.755             25.512             82.856
 Electronic               0.000              0.000              1.377
 Translational            0.889              2.981             40.057
 Rotational               0.889              2.981             27.710
 Vibrational             53.977             19.550             13.712
 Vibration     1          0.614              1.917              2.855
 Vibration     2          0.620              1.897              2.610
 Vibration     3          0.651              1.799              1.900
 Vibration     4          0.766              1.470              0.963
 Vibration     5          0.770              1.460              0.946
 Vibration     6          0.798              1.387              0.832
 Vibration     7          0.831              1.307              0.726
 Vibration     8          0.922              1.106              0.513
 Vibration     9          0.942              1.063              0.476
 Vibration    10          0.960              1.029              0.447

 Optimization completed.
    -- Stationary point found.
 Normal termination of Gaussian 16 at Sun Nov  5 01:56:48 2023.
