 Gaussian 16, Revision C.01,
 Gaussian 16:  ES64L-G16RevC.01  3-Jul-2019

 ----------------------------------------------------------------------
 # opt=(calcfc,ts,noeigentest) freq 6-31+g(d,p) integral=grid=ultrafine
  m062x scrf=(SMD,solvent=water)
 ----------------------------------------------------------------------

 -------------------
 Title Card Required
 -------------------
 Symbolic Z-matrix:
 Charge =  0 Multiplicity = 1

 SCF Done:  E(RM062X) =  -414.300472149     A.U. after   17 cycles
 SCF Done:  E(RM062X) =  -414.361708084     A.U. after   15 cycles
 SCF Done:  E(RM062X) =  -414.419967219     A.U. after   14 cycles
 SCF Done:  E(RM062X) =  -414.478769146     A.U. after   14 cycles
 SCF Done:  E(RM062X) =  -414.526723868     A.U. after   13 cycles
 SCF Done:  E(RM062X) =  -414.563617337     A.U. after   13 cycles
 SCF Done:  E(RM062X) =  -414.602884256     A.U. after   13 cycles
 SCF Done:  E(RM062X) =  -414.627129060     A.U. after   13 cycles
 SCF Done:  E(RM062X) =  -414.635387763     A.U. after   13 cycles
 SCF Done:  E(RM062X) =  -414.616593487     A.U. after   13 cycles
 SCF Done:  E(RM062X) =  -414.628366744     A.U. after   10 cycles
 SCF Done:  E(RM062X) =  -414.628381048     A.U. after   10 cycles
 SCF Done:  E(RM062X) =  -414.628348873     A.U. after   10 cycles
 SCF Done:  E(RM062X) =  -414.624492391     A.U. after   13 cycles
 SCF Done:  E(RM062X) =  -414.627945027     A.U. after   12 cycles
 SCF Done:  E(RM062X) =  -414.628321284     A.U. after   11 cycles
 SCF Done:  E(RM062X) =  -414.628378067     A.U. after   11 cycles
 SCF Done:  E(RM062X) =  -414.628371752     A.U. after   11 cycles
 SCF Done:  E(RM062X) =  -414.628384686     A.U. after   10 cycles
 Optimization completed.
    -- Stationary point found.
 Normal termination of Gaussian 16 at Fri Oct 27 05:33:35 2023.

 ----------------------------------------------------------------------
 #N Geom=AllCheck Guess=TCheck SCRF=Check GenChk RM062X/6-31+G(d,p) Fre
 q
 ----------------------------------------------------------------------

 Structure from the checkpoint file:  "/home/Tinker/g16/scratch/Gau-1650534.chk"
 -------------------
 Title Card Required
 -------------------
 Charge =  0 Multiplicity = 1

                         Standard orientation:
 ---------------------------------------------------------------------
 Center     Atomic      Atomic             Coordinates (Angstroms)
 Number     Number       Type             X           Y           Z
 ---------------------------------------------------------------------
      1          7           0       -0.591409    0.990884    0.000037
      2          7           0        0.000204   -0.212177    0.000050
      3          6           0       -0.911502   -1.206272   -0.000004
      4          6           0       -2.153088   -0.596002    0.000005
      5          6           0       -1.901258    0.792020    0.000067
      6          1           0       -0.611941   -2.244076   -0.000984
      7          1           0       -3.116707   -1.081699    0.000025
      8          6           0        1.451771   -0.066212    0.000027
      9          8           0        2.167087   -1.048867    0.000133
     10          8           0        1.714907    1.186829   -0.000142
     11          1           0        0.486297    1.606205   -0.000166
     12          1           0       -2.590713    1.623722    0.000029
 ---------------------------------------------------------------------

 SCF Done:  E(RM062X) =  -414.628384686     A.U. after    1 cycles

 The electronic state is 1-A.
 Alpha  occ. eigenvalues --  -19.66835 -19.65413 -14.87623 -14.84757 -10.73549
 Alpha  occ. eigenvalues --  -10.61882 -10.61480 -10.56967  -1.26614  -1.19599
 Alpha  occ. eigenvalues --   -1.14852  -0.96745  -0.92379  -0.75670  -0.72859
 Alpha  occ. eigenvalues --   -0.68362  -0.63920  -0.59644  -0.57025  -0.55281
 Alpha  occ. eigenvalues --   -0.52657  -0.51618  -0.51298  -0.48338  -0.40882
 Alpha  occ. eigenvalues --   -0.39570  -0.38522  -0.35993  -0.33813
 Alpha virt. eigenvalues --   -0.01565   0.01751   0.03675   0.04182   0.04467
 Alpha virt. eigenvalues --    0.05684   0.06353   0.06477   0.06924   0.09030
 Alpha virt. eigenvalues --    0.09446   0.10191   0.11015   0.11246   0.12732

 Mulliken charges:
               1
     1  N   -0.162934
     2  N   -0.193181
     3  C   -0.183199
     4  C    0.022994
     5  C   -0.286774
     6  H    0.262814
     7  H    0.235632
     8  C    0.824188
     9  O   -0.599822
    10  O   -0.667551
    11  H    0.497761
    12  H    0.250073
 Sum of Mulliken charges =  -0.00000

 Dipole moment (field-independent basis, Debye):
    X=             -9.0696    Y=              0.4054    Z=             -0.0014  Tot=              9.0787
 Quadrupole moment (field-independent basis, Debye-Ang):
   XX=            -51.5266   YY=            -42.3277   ZZ=            -46.9558
   XY=              1.0776   XZ=              0.0003   YZ=              0.0032

  Exact polarizability:     115.682      -5.901      98.400      -0.000      -0.001      49.002
 Approx polarizability:      97.274      -5.446      91.649       0.001      -0.002      45.853

 ******    1 imaginary frequencies (negative Signs) ******

                      1                      2                      3
                      A                      A                      A
 Frequencies --  -1429.9152               132.3217               160.9482
 Red. masses --      1.0795                 7.2207                 6.7370
 Frc consts  --      1.3005                 0.0745                 0.1028
 IR Inten    --   3281.9211                 0.0441                 2.6557

                      4                      5                      6
                      A                      A                      A
 Frequencies --    307.4843               564.6385               603.6134
 Red. masses --      6.7189                 7.7916                 3.1124
 Frc consts  --      0.3743                 1.4636                 0.6681
 IR Inten    --      1.8488                 0.4527                20.6350

                      7                      8                      9
                      A                      A                      A
 Frequencies --    644.5814               648.6170               774.5472
 Red. masses --      5.5518                 9.4159                11.7357
 Frc consts  --      1.3591                 2.3339                 4.1482
 IR Inten    --      9.2890                36.0456                33.5449

                     10                     11                     12
                      A                      A                      A
 Frequencies --    796.0963               797.0763               912.5979
 Red. masses --      1.1878                13.0579                 1.3059
 Frc consts  --      0.4435                 4.8879                 0.6408
 IR Inten    --    134.4717               377.4080                 2.4703

                     13                     14                     15
                      A                      A                      A
 Frequencies --    946.1181               949.4717              1010.2567
 Red. masses --      5.6188                 1.3890                 1.8243
 Frc consts  --      2.9634                 0.7378                 1.0970
 IR Inten    --     27.0820                 9.1247                11.7811

                     16                     17                     18
                      A                      A                      A
 Frequencies --   1076.8060              1106.8336              1138.6970
 Red. masses --      1.4279                 2.3832                 1.0564
 Frc consts  --      0.9755                 1.7202                 0.8070
 IR Inten    --    345.4102                 5.0289               166.3951

                     19                     20                     21
                      A                      A                      A
 Frequencies --   1244.1592              1283.8714              1292.2102
 Red. masses --      1.5848                 4.4361                 8.5595
 Frc consts  --      1.4454                 4.3082                 8.4210
 IR Inten    --    230.7883               314.0796               811.6848

                     22                     23                     24
                      A                      A                      A
 Frequencies --   1437.1498              1461.1926              1511.9166
 Red. masses --      4.3494                 4.4152                 5.7786
 Frc consts  --      5.2928                 5.5541                 7.7827
 IR Inten    --    190.3690                58.8803                63.5797

                     25                     26                     27
                      A                      A                      A
 Frequencies --   1593.6109              1808.3479              2085.5202
 Red. masses --      5.4398                10.3828                 1.0623
 Frc consts  --      8.1394                20.0045                 2.7222
 IR Inten    --     53.3435              1259.1573               523.0468

                     28                     29                     30
                      A                      A                      A
 Frequencies --   3309.8407              3319.0193              3329.2517
 Red. masses --      1.0943                 1.1006                 1.1088
 Frc consts  --      7.0635                 7.1436                 7.2409
 IR Inten    --      1.0870                23.9713                12.3845

 - Thermochemistry -
 -------------------
 Temperature   298.150 Kelvin.  Pressure   1.00000 Atm.
 Atom     1 has atomic number  7 and mass  14.00307

 Molecular mass:   112.02728 amu.
 Principal axes and moments of inertia in atomic units:
                           1         2         3
     Eigenvalues --   340.36392 993.487701333.85161
           X            0.99997   0.00719   0.00000
           Y           -0.00719   0.99997   0.00002
           Z           -0.00000  -0.00002   1.00000
 This molecule is an asymmetric top.
 Rotational symmetry number  1.
 Rotational temperatures (Kelvin)      0.25447     0.08718     0.06494
 Rotational constants (GHZ):           5.30239     1.81657     1.35303
    1 imaginary frequencies ignored.
 Zero-point vibrational energy     216804.0 (Joules/Mol)
                                   51.81740 (Kcal/Mol)
 Warning -- explicit consideration of   5 degrees of freedom as
           vibrations may cause significant error
 Vibrational temperatures:    190.38   231.57   442.40   812.39   868.47
          (Kelvin)            927.41   933.22  1114.40  1145.41  1146.82
                             1313.02  1361.25  1366.08  1453.53  1549.28
                             1592.49  1638.33  1790.07  1847.20  1859.20
                             2067.74  2102.33  2175.31  2292.85  2601.81
                             3000.60  4762.12  4775.33  4790.05

 Zero-point correction=                           0.082576 (Hartree/Particle)
 Thermal correction to Energy=                    0.088284
 Thermal correction to Enthalpy=                  0.089228
 Thermal correction to Gibbs Free Energy=         0.052346
 Sum of electronic and zero-point Energies=           -414.545808
 Sum of electronic and thermal Energies=              -414.540101
 Sum of electronic and thermal Enthalpies=            -414.539157
 Sum of electronic and thermal Free Energies=         -414.576039

                     E (Thermal)             CV                S
                      KCal/Mol        Cal/Mol-Kelvin    Cal/Mol-Kelvin
 Total                   55.399             20.812             77.625
 Electronic               0.000              0.000              0.000
 Translational            0.889              2.981             40.057
 Rotational               0.889              2.981             27.602
 Vibrational             53.621             14.851              9.966
 Vibration     1          0.612              1.921              2.912
 Vibration     2          0.622              1.890              2.539
 Vibration     3          0.697              1.659              1.376
 Vibration     4          0.920              1.108              0.515
 Vibration     5          0.962              1.024              0.443

 Optimization completed.
    -- Stationary point found.
 Normal termination of Gaussian 16 at Fri Oct 27 05:34:51 2023.
